 Entering Link 1 = C:\G09W\l1.exe PID=     17748.
  
 Copyright (c) 1988,1990,1992,1993,1995,1998,2003,2009,2013,
            Gaussian, Inc.  All Rights Reserved.
  
 This is part of the Gaussian(R) 09 program.  It is based on
 the Gaussian(R) 03 system (copyright 2003, Gaussian, Inc.),
 the Gaussian(R) 98 system (copyright 1998, Gaussian, Inc.),
 the Gaussian(R) 94 system (copyright 1995, Gaussian, Inc.),
 the Gaussian 92(TM) system (copyright 1992, Gaussian, Inc.),
 the Gaussian 90(TM) system (copyright 1990, Gaussian, Inc.),
 the Gaussian 88(TM) system (copyright 1988, Gaussian, Inc.),
 the Gaussian 86(TM) system (copyright 1986, Carnegie Mellon
 University), and the Gaussian 82(TM) system (copyright 1983,
 Carnegie Mellon University). Gaussian is a federally registered
 trademark of Gaussian, Inc.
  
 This software contains proprietary and confidential information,
 including trade secrets, belonging to Gaussian, Inc.
  
 This software is provided under written license and may be
 used, copied, transmitted, or stored only in accord with that
 written license.
  
 The following legend is applicable only to US Government
 contracts under FAR:
  
                    RESTRICTED RIGHTS LEGEND
  
 Use, reproduction and disclosure by the US Government is
 subject to restrictions as set forth in subparagraphs (a)
 and (c) of the Commercial Computer Software - Restricted
 Rights clause in FAR 52.227-19.
  
 Gaussian, Inc.
 340 Quinnipiac St., Bldg. 40, Wallingford CT 06492
  
  
 ---------------------------------------------------------------
 Warning -- This program may not be used in any manner that
 competes with the business of Gaussian, Inc. or will provide
 assistance to any competitor of Gaussian, Inc.  The licensee
 of this program is prohibited from giving any competitor of
 Gaussian, Inc. access to this program.  By using this program,
 the user acknowledges that Gaussian, Inc. is engaged in the
 business of creating and licensing software in the field of
 computational chemistry and represents and warrants to the
 licensee that it is not a competitor of Gaussian, Inc. and that
 it will not use this program in any manner prohibited above.
 ---------------------------------------------------------------
  

 Cite this work as:
 Gaussian 09, Revision D.01,
 M. J. Frisch, G. W. Trucks, H. B. Schlegel, G. E. Scuseria, 
 M. A. Robb, J. R. Cheeseman, G. Scalmani, V. Barone, B. Mennucci, 
 G. A. Petersson, H. Nakatsuji, M. Caricato, X. Li, H. P. Hratchian, 
 A. F. Izmaylov, J. Bloino, G. Zheng, J. L. Sonnenberg, M. Hada, 
 M. Ehara, K. Toyota, R. Fukuda, J. Hasegawa, M. Ishida, T. Nakajima, 
 Y. Honda, O. Kitao, H. Nakai, T. Vreven, J. A. Montgomery, Jr., 
 J. E. Peralta, F. Ogliaro, M. Bearpark, J. J. Heyd, E. Brothers, 
 K. N. Kudin, V. N. Staroverov, T. Keith, R. Kobayashi, J. Normand, 
 K. Raghavachari, A. Rendell, J. C. Burant, S. S. Iyengar, J. Tomasi, 
 M. Cossi, N. Rega, J. M. Millam, M. Klene, J. E. Knox, J. B. Cross, 
 V. Bakken, C. Adamo, J. Jaramillo, R. Gomperts, R. E. Stratmann, 
 O. Yazyev, A. J. Austin, R. Cammi, C. Pomelli, J. W. Ochterski, 
 R. L. Martin, K. Morokuma, V. G. Zakrzewski, G. A. Voth, 
 P. Salvador, J. J. Dannenberg, S. Dapprich, A. D. Daniels, 
 O. Farkas, J. B. Foresman, J. V. Ortiz, J. Cioslowski, 
 and D. J. Fox, Gaussian, Inc., Wallingford CT, 2013.
 
 ******************************************
 Gaussian 09:  IA32W-G09RevD.01 24-Apr-2013
                25-Jul-2025 
 ******************************************
 %chk=C:\Users\sina system\Desktop\New folder (3)\frequency.chk
 ------------------------------------
 # freq b3lyp/6-31g geom=connectivity
 ------------------------------------
 1/10=4,30=1,38=1,57=2/1,3;
 2/12=2,17=6,18=5,40=1/2;
 3/5=1,6=6,11=2,16=1,25=1,30=1,71=2,74=-5,140=1/1,2,3;
 4//1;
 5/5=2,38=5,98=1/2;
 8/6=4,10=90,11=11/1;
 11/6=1,8=1,9=11,15=111,16=1/1,2,10;
 10/6=1/2;
 6/7=2,8=2,9=2,10=2,18=1,28=1/1;
 7/8=1,10=1,25=1/1,2,3,16;
 1/10=4,30=1/3;
 99//99;
 -------------------
 Title Card Required
 -------------------
 Symbolic Z-matrix:
 Charge =  0 Multiplicity = 1
 C                    -1.5489   -1.36381  -0.27831 
 C                    -2.38216   1.03513   0.19049 
 C                    -1.23493   0.08507  -0.04197 
 C                     1.23492   0.08505   0.04184 
 C                     1.5488   -1.36383   0.27835 
 C                     2.38227   1.03504  -0.19041 
 N                     0.00001   0.57962  -0.00007 
 H                    -1.65444  -1.94849   0.63596 
 H                    -0.79479  -1.84114  -0.89135 
 H                    -2.49552  -1.43535  -0.80688 
 H                    -2.82438   0.9265    1.18196 
 H                    -3.17585   0.86319  -0.532 
 H                    -2.07263   2.07438   0.09485 
 H                     0.79488  -1.84089   0.89187 
 H                     2.49565  -1.43539   0.80647 
 H                     1.65377  -1.94874  -0.63583 
 H                     3.17566   0.86333   0.53248 
 H                     2.82486   0.92604  -1.18166 
 H                     2.0727    2.07431  -0.09523 
 H                     0.        1.589    -0.00008 
 

 GradGradGradGradGradGradGradGradGradGradGradGradGradGradGradGradGradGrad
 Berny optimization.
 Initialization pass.
 Trust Radius=3.00D-01 FncErr=1.00D-07 GrdErr=1.00D-07
 Number of steps in this run=      2 maximum allowed number of steps=      2.
 GradGradGradGradGradGradGradGradGradGradGradGradGradGradGradGradGradGrad

                          Input orientation:                          
 ---------------------------------------------------------------------
 Center     Atomic      Atomic             Coordinates (Angstroms)
 Number     Number       Type             X           Y           Z
 ---------------------------------------------------------------------
      1          6           0       -1.548898   -1.363815   -0.278311
      2          6           0       -2.382164    1.035133    0.190485
      3          6           0       -1.234926    0.085075   -0.041969
      4          6           0        1.234916    0.085052    0.041837
      5          6           0        1.548798   -1.363832    0.278349
      6          6           0        2.382273    1.035042   -0.190408
      7          7           0        0.000015    0.579617   -0.000066
      8          1           0       -1.654435   -1.948485    0.635959
      9          1           0       -0.794792   -1.841143   -0.891345
     10          1           0       -2.495520   -1.435354   -0.806878
     11          1           0       -2.824382    0.926501    1.181963
     12          1           0       -3.175854    0.863192   -0.532001
     13          1           0       -2.072634    2.074377    0.094845
     14          1           0        0.794879   -1.840888    0.891869
     15          1           0        2.495651   -1.435389    0.806472
     16          1           0        1.653768   -1.948737   -0.635827
     17          1           0        3.175658    0.863330    0.532479
     18          1           0        2.824858    0.926043   -1.181660
     19          1           0        2.072702    2.074308   -0.095234
     20          1           0        0.000004    1.588996   -0.000080
 ---------------------------------------------------------------------
                    Distance matrix (angstroms):
                    1          2          3          4          5
     1  C    0.000000
     2  C    2.582451   0.000000
     3  C    1.501239   1.507581   0.000000
     4  C    3.154573   3.742729   2.471264   0.000000
     5  C    3.147315   4.605997   3.154529   1.501241   0.000000
     6  C    4.606121   4.779638   3.742806   1.507596   2.582443
     7  N    2.500696   2.432813   1.330942   1.330914   2.500648
     8  H    1.090351   3.103226   2.184248   3.582821   3.275729
     9  H    1.082741   3.458767   2.150691   2.949707   2.662410
    10  H    1.086551   2.666625   2.117991   4.116807   4.187999
    11  H    3.000800   1.091048   2.175402   4.299514   5.018649
    12  H    2.769640   1.086965   2.147743   4.515494   5.285701
    13  H    3.497815   1.088570   2.162821   3.860067   4.996971
    14  H    2.662745   4.342469   2.949830   2.150682   1.082766
    15  H    4.188109   5.502363   4.116900   2.117985   1.086538
    16  H    3.275213   5.086749   3.582403   2.184253   1.090344
    17  H    5.285734   5.570984   4.515409   2.147772   2.769748
    18  H    5.018888   5.385885   4.299764   2.175345   3.000581
    19  H    4.997018   4.583378   3.860089   2.162825   3.497834
    20  H    3.345983   2.453121   1.946429   1.946435   3.345964
                    6          7          8          9         10
     6  C    0.000000
     7  N    2.432858   0.000000
     8  H    5.087173   3.087561   0.000000
     9  H    4.342522   2.699292   1.755895   0.000000
    10  H    5.502340   3.307378   1.747142   1.750506   0.000000
    11  H    5.385577   3.081353   3.151577   4.009700   3.105156
    12  H    5.571265   3.232570   3.403583   3.621051   2.412826
    13  H    4.583425   2.557184   4.080578   4.235180   3.648308
    14  H    3.458630   2.699297   2.464996   2.388913   3.725174
    15  H    2.666394   3.307409   4.185159   3.724813   5.245444
    16  H    3.103555   3.087340   3.544241   2.464206   4.184424
    17  H    1.086973   3.232461   5.589884   5.010581   6.264190
    18  H    1.091029   3.081544   5.624119   4.565465   5.832930
    19  H    1.088562   2.557184   5.532545   4.918035   5.804551
    20  H    2.453221   1.009378   3.956701   3.632067   4.003156
                   11         12         13         14         15
    11  H    0.000000
    12  H    1.750775   0.000000
    13  H    1.750591   1.754137   0.000000
    14  H    4.565265   5.010606   4.918046   0.000000
    15  H    5.832861   6.264260   5.804662   1.750528   0.000000
    16  H    5.623627   5.589541   5.532215   1.755898   1.747146
    17  H    6.035420   6.440094   5.403955   3.620783   2.412797
    18  H    6.123775   6.036104   5.189756   4.009520   3.104418
    19  H    5.189424   5.404156   4.149692   4.235087   3.648278
    20  H    3.132616   3.300879   2.130830   3.632011   4.003209
                   16         17         18         19         20
    16  H    0.000000
    17  H    3.404233   0.000000
    18  H    3.151784   1.750791   0.000000
    19  H    4.080764   1.754139   1.750592   0.000000
    20  H    3.956597   3.300755   3.132960   2.130882   0.000000
 Stoichiometry    C6H13N
 Framework group  C1[X(C6H13N)]
 Deg. of freedom    54
 Full point group                 C1      NOp   1
 Largest Abelian subgroup         C1      NOp   1
 Largest concise Abelian subgroup C1      NOp   1
                         Standard orientation:                         
 ---------------------------------------------------------------------
 Center     Atomic      Atomic             Coordinates (Angstroms)
 Number     Number       Type             X           Y           Z
 ---------------------------------------------------------------------
      1          6           0       -1.548898   -1.363815   -0.278311
      2          6           0       -2.382164    1.035133    0.190485
      3          6           0       -1.234926    0.085075   -0.041969
      4          6           0        1.234916    0.085052    0.041837
      5          6           0        1.548798   -1.363832    0.278349
      6          6           0        2.382273    1.035042   -0.190408
      7          7           0        0.000015    0.579617   -0.000066
      8          1           0       -1.654435   -1.948485    0.635959
      9          1           0       -0.794792   -1.841143   -0.891345
     10          1           0       -2.495520   -1.435354   -0.806878
     11          1           0       -2.824382    0.926501    1.181963
     12          1           0       -3.175854    0.863192   -0.532001
     13          1           0       -2.072634    2.074377    0.094845
     14          1           0        0.794879   -1.840888    0.891869
     15          1           0        2.495651   -1.435389    0.806472
     16          1           0        1.653768   -1.948737   -0.635827
     17          1           0        3.175658    0.863330    0.532479
     18          1           0        2.824858    0.926043   -1.181660
     19          1           0        2.072702    2.074308   -0.095234
     20          1           0        0.000004    1.588996   -0.000080
 ---------------------------------------------------------------------
 Rotational constants (GHZ):      4.2752037      1.6586617      1.2537537
 Standard basis: 6-31G (6D, 7F)
 There are    89 symmetry adapted cartesian basis functions of A   symmetry.
 There are    89 symmetry adapted basis functions of A   symmetry.
    89 basis functions,   206 primitive gaussians,    89 cartesian basis functions
    28 alpha electrons       28 beta electrons
       nuclear repulsion energy       314.3082676582 Hartrees.
 NAtoms=   20 NActive=   20 NUniq=   20 SFac= 1.00D+00 NAtFMM=   60 NAOKFM=F Big=F
 Integral buffers will be    262144 words long.
 Raffenetti 2 integral format.
 Two-electron integral symmetry is turned on.
 One-electron integrals computed using PRISM.
 NBasis=    89 RedAO= T EigKep=  4.10D-03  NBF=    89
 NBsUse=    89 1.00D-06 EigRej= -1.00D+00 NBFU=    89
 ExpMin= 1.61D-01 ExpMax= 4.17D+03 ExpMxC= 6.27D+02 IAcc=1 IRadAn=         1 AccDes= 0.00D+00
 Harris functional with IExCor=  402 and IRadAn=       1 diagonalized for initial guess.
 HarFok:  IExCor=  402 AccDes= 0.00D+00 IRadAn=         1 IDoV= 1 UseB2=F ITyADJ=14
 ICtDFT=  3500011 ScaDFX=  1.000000  1.000000  1.000000  1.000000
 FoFCou: FMM=F IPFlag=           0 FMFlag=      100000 FMFlg1=           0
         NFxFlg=           0 DoJE=T BraDBF=F KetDBF=T FulRan=T
         wScrn=  0.000000 ICntrl=     500 IOpCl=  0 I1Cent=   200000004 NGrid=           0
         NMat0=    1 NMatS0=      1 NMatT0=    0 NMatD0=    1 NMtDS0=    0 NMtDT0=    0
 Petite list used in FoFCou.
 Keep R1 ints in memory in canonical form, NReq=8972139.
 Requested convergence on RMS density matrix=1.00D-08 within 128 cycles.
 Requested convergence on MAX density matrix=1.00D-06.
 Requested convergence on             energy=1.00D-06.
 No special actions if energy rises.
 Integral accuracy reduced to 1.0D-05 until final iterations.
 Initial convergence to 1.0D-05 achieved.  Increase integral accuracy.
 SCF Done:  E(RB3LYP) =  -291.076812013     A.U. after   14 cycles
            NFock= 14  Conv=0.66D-08     -V/T= 2.0048
 DoSCS=F DFT=T ScalE2(SS,OS)=  1.000000  1.000000
 Range of M.O.s used for correlation:     1    89
 NBasis=    89 NAE=    28 NBE=    28 NFC=     0 NFV=     0
 NROrb=     89 NOA=    28 NOB=    28 NVA=    61 NVB=    61
 Symmetrizing basis deriv contribution to polar:
 IMax=3 JMax=2 DiffMx= 0.00D+00
 G2DrvN: will do    21 centers at a time, making    1 passes.
 Calling FoFCou, ICntrl=  3107 FMM=F I1Cent=   0 AccDes= 0.00D+00.
 End of G2Drv F.D. properties file   721 does not exist.
 End of G2Drv F.D. properties file   722 does not exist.
 End of G2Drv F.D. properties file   788 does not exist.
          IDoAtm=11111111111111111111
          Differentiating once with respect to electric field.
                with respect to dipole field.
          Differentiating once with respect to nuclear coordinates.
 Keep R1 ints in memory in canonical form, NReq=8931243.
          There are    63 degrees of freedom in the 1st order CPHF.  IDoFFX=6 NUNeed=     3.
     60 vectors produced by pass  0 Test12= 2.71D-15 1.59D-09 XBig12= 2.81D+02 1.56D+01.
 AX will form    60 AO Fock derivatives at one time.
     60 vectors produced by pass  1 Test12= 2.71D-15 1.59D-09 XBig12= 1.21D+02 4.48D+00.
     60 vectors produced by pass  2 Test12= 2.71D-15 1.59D-09 XBig12= 3.39D-01 1.50D-01.
     60 vectors produced by pass  3 Test12= 2.71D-15 1.59D-09 XBig12= 3.27D-04 3.95D-03.
     60 vectors produced by pass  4 Test12= 2.71D-15 1.59D-09 XBig12= 1.61D-07 5.27D-05.
     22 vectors produced by pass  5 Test12= 2.71D-15 1.59D-09 XBig12= 7.01D-11 1.12D-06.
      3 vectors produced by pass  6 Test12= 2.71D-15 1.59D-09 XBig12= 2.44D-14 1.99D-08.
 InvSVY:  IOpt=1 It=  1 EMax= 2.49D-14
 Solved reduced A of dimension   325 with    63 vectors.
 Isotropic polarizability for W=    0.000000       83.72 Bohr**3.
 End of Minotr F.D. properties file   721 does not exist.
 End of Minotr F.D. properties file   722 does not exist.
 End of Minotr F.D. properties file   788 does not exist.

 **********************************************************************

            Population analysis using the SCF density.

 **********************************************************************

 Orbital symmetries:
       Occupied  (A) (A) (A) (A) (A) (A) (A) (A) (A) (A) (A) (A)
                 (A) (A) (A) (A) (A) (A) (A) (A) (A) (A) (A) (A)
                 (A) (A) (A) (A)
       Virtual   (A) (A) (A) (A) (A) (A) (A) (A) (A) (A) (A) (A)
                 (A) (A) (A) (A) (A) (A) (A) (A) (A) (A) (A) (A)
                 (A) (A) (A) (A) (A) (A) (A) (A) (A) (A) (A) (A)
                 (A) (A) (A) (A) (A) (A) (A) (A) (A) (A) (A) (A)
                 (A) (A) (A) (A) (A) (A) (A) (A) (A) (A) (A) (A)
                 (A)
 The electronic state is 1-A.
 Alpha  occ. eigenvalues --  -14.38985 -10.18041 -10.18037 -10.16816 -10.16815
 Alpha  occ. eigenvalues --  -10.16179 -10.16177  -0.97382  -0.78440  -0.73651
 Alpha  occ. eigenvalues --   -0.69896  -0.68497  -0.62685  -0.56893  -0.47674
 Alpha  occ. eigenvalues --   -0.45903  -0.44278  -0.41495  -0.40361  -0.39457
 Alpha  occ. eigenvalues --   -0.38367  -0.38149  -0.37720  -0.37517  -0.34656
 Alpha  occ. eigenvalues --   -0.34366  -0.33194  -0.11922
 Alpha virt. eigenvalues --    0.03039   0.06736   0.11330   0.12135   0.13837
 Alpha virt. eigenvalues --    0.14149   0.16107   0.17763   0.18244   0.19213
 Alpha virt. eigenvalues --    0.19440   0.19741   0.20695   0.24246   0.24664
 Alpha virt. eigenvalues --    0.25128   0.29618   0.30383   0.38644   0.44402
 Alpha virt. eigenvalues --    0.51781   0.53475   0.53811   0.56165   0.58335
 Alpha virt. eigenvalues --    0.58875   0.60275   0.61085   0.62895   0.66853
 Alpha virt. eigenvalues --    0.67525   0.74446   0.75044   0.77323   0.78677
 Alpha virt. eigenvalues --    0.81388   0.82785   0.84335   0.86327   0.87975
 Alpha virt. eigenvalues --    0.92605   0.93345   0.93436   0.95591   0.96870
 Alpha virt. eigenvalues --    0.97549   0.98164   0.99281   1.00527   1.01026
 Alpha virt. eigenvalues --    1.01343   1.03568   1.06030   1.11941   1.28573
 Alpha virt. eigenvalues --    1.28785   1.38754   1.41187   1.57392   1.63538
 Alpha virt. eigenvalues --    1.65527
          Condensed to atoms (all electrons):
               1          2          3          4          5          6
     1  C    5.062285  -0.059140   0.391179  -0.006153   0.000916   0.000007
     2  C   -0.059140   5.101849   0.391542   0.005427   0.000007  -0.000378
     3  C    0.391179   0.391542   5.004311  -0.080082  -0.006151   0.005426
     4  C   -0.006153   0.005427  -0.080082   5.004313   0.391165   0.391544
     5  C    0.000916   0.000007  -0.006151   0.391165   5.062310  -0.059137
     6  C    0.000007  -0.000378   0.005426   0.391544  -0.059137   5.101817
     7  N   -0.056739  -0.050397   0.349208   0.349218  -0.056751  -0.050390
     8  H    0.369410  -0.000002  -0.048111   0.001522  -0.001716  -0.000011
     9  H    0.371882   0.004029  -0.040206   0.003601   0.001696  -0.000040
    10  H    0.363309  -0.006274  -0.042315   0.000552   0.000252   0.000006
    11  H    0.000356   0.366544  -0.050249   0.000379   0.000000   0.000001
    12  H   -0.003557   0.361118  -0.046398  -0.000126   0.000007   0.000006
    13  H    0.004511   0.360012  -0.045329   0.000132   0.000002  -0.000014
    14  H    0.001693  -0.000040   0.003609  -0.040229   0.371880   0.004028
    15  H    0.000252   0.000006   0.000551  -0.042308   0.363314  -0.006272
    16  H   -0.001720  -0.000011   0.001522  -0.048101   0.369407   0.000000
    17  H    0.000007   0.000006  -0.000125  -0.046406  -0.003557   0.361113
    18  H    0.000000   0.000001   0.000378  -0.050248   0.000354   0.366558
    19  H    0.000002  -0.000014   0.000132  -0.045325   0.004512   0.360016
    20  H    0.006635  -0.008386  -0.044992  -0.044985   0.006636  -0.008388
               7          8          9         10         11         12
     1  C   -0.056739   0.369410   0.371882   0.363309   0.000356  -0.003557
     2  C   -0.050397  -0.000002   0.004029  -0.006274   0.366544   0.361118
     3  C    0.349208  -0.048111  -0.040206  -0.042315  -0.050249  -0.046398
     4  C    0.349218   0.001522   0.003601   0.000552   0.000379  -0.000126
     5  C   -0.056751  -0.001716   0.001696   0.000252   0.000000   0.000007
     6  C   -0.050390  -0.000011  -0.000040   0.000006   0.000001   0.000006
     7  N    6.828088  -0.001238  -0.004215   0.004195  -0.000858   0.002320
     8  H   -0.001238   0.635190  -0.041326  -0.048003   0.003254  -0.001529
     9  H   -0.004215  -0.041326   0.582884  -0.023130  -0.000239   0.000486
    10  H    0.004195  -0.048003  -0.023130   0.613668  -0.002057   0.009191
    11  H   -0.000858   0.003254  -0.000239  -0.002057   0.641675  -0.054747
    12  H    0.002320  -0.001529   0.000486   0.009191  -0.054747   0.617738
    13  H   -0.005839  -0.000222  -0.000180   0.000415  -0.040976  -0.022647
    14  H   -0.004213  -0.002535   0.000397   0.000450  -0.000062   0.000015
    15  H    0.004196  -0.000188   0.000449  -0.000001  -0.000002   0.000000
    16  H   -0.001240   0.001284  -0.002530  -0.000189   0.000005  -0.000005
    17  H    0.002317  -0.000005   0.000015   0.000000  -0.000001   0.000000
    18  H   -0.000854   0.000005  -0.000061  -0.000002   0.000001  -0.000001
    19  H   -0.005839  -0.000003   0.000007   0.000001  -0.000008   0.000004
    20  H    0.304290  -0.000471   0.000208  -0.000004  -0.001857   0.001182
              13         14         15         16         17         18
     1  C    0.004511   0.001693   0.000252  -0.001720   0.000007   0.000000
     2  C    0.360012  -0.000040   0.000006  -0.000011   0.000006   0.000001
     3  C   -0.045329   0.003609   0.000551   0.001522  -0.000125   0.000378
     4  C    0.000132  -0.040229  -0.042308  -0.048101  -0.046406  -0.050248
     5  C    0.000002   0.371880   0.363314   0.369407  -0.003557   0.000354
     6  C   -0.000014   0.004028  -0.006272   0.000000   0.361113   0.366558
     7  N   -0.005839  -0.004213   0.004196  -0.001240   0.002317  -0.000854
     8  H   -0.000222  -0.002535  -0.000188   0.001284  -0.000005   0.000005
     9  H   -0.000180   0.000397   0.000449  -0.002530   0.000015  -0.000061
    10  H    0.000415   0.000450  -0.000001  -0.000189   0.000000  -0.000002
    11  H   -0.040976  -0.000062  -0.000002   0.000005  -0.000001   0.000001
    12  H   -0.022647   0.000015   0.000000  -0.000005   0.000000  -0.000001
    13  H    0.622090   0.000007   0.000001  -0.000003   0.000004  -0.000008
    14  H    0.000007   0.582917  -0.023125  -0.041341   0.000487  -0.000239
    15  H    0.000001  -0.023125   0.613633  -0.047988   0.009188  -0.002057
    16  H   -0.000003  -0.041341  -0.047988   0.635169  -0.001527   0.003251
    17  H    0.000004   0.000487   0.009188  -0.001527   0.617756  -0.054745
    18  H   -0.000008  -0.000239  -0.002057   0.003251  -0.054745   0.641624
    19  H    0.000038  -0.000180   0.000415  -0.000222  -0.022655  -0.040962
    20  H    0.013798   0.000208  -0.000004  -0.000471   0.001183  -0.001855
              19         20
     1  C    0.000002   0.006635
     2  C   -0.000014  -0.008386
     3  C    0.000132  -0.044992
     4  C   -0.045325  -0.044985
     5  C    0.004512   0.006636
     6  C    0.360016  -0.008388
     7  N   -0.005839   0.304290
     8  H   -0.000003  -0.000471
     9  H    0.000007   0.000208
    10  H    0.000001  -0.000004
    11  H   -0.000008  -0.001857
    12  H    0.000004   0.001182
    13  H    0.000038   0.013798
    14  H   -0.000180   0.000208
    15  H    0.000415  -0.000004
    16  H   -0.000222  -0.000471
    17  H   -0.022655   0.001183
    18  H   -0.040962  -0.001855
    19  H    0.622078   0.013794
    20  H    0.013794   0.450194
 Mulliken charges:
               1
     1  C   -0.445134
     2  C   -0.465899
     3  C    0.256102
     4  C    0.256111
     5  C   -0.445146
     6  C   -0.465893
     7  N   -0.605257
     8  H    0.134694
     9  H    0.146273
    10  H    0.129936
    11  H    0.138842
    12  H    0.136943
    13  H    0.114209
    14  H    0.146271
    15  H    0.129940
    16  H    0.134706
    17  H    0.136944
    18  H    0.138861
    19  H    0.114211
    20  H    0.313286
 Sum of Mulliken charges =   0.00000
 Mulliken charges with hydrogens summed into heavy atoms:
               1
     1  C   -0.034231
     2  C   -0.075904
     3  C    0.256102
     4  C    0.256111
     5  C   -0.034229
     6  C   -0.075878
     7  N   -0.291971
 APT charges:
               1
     1  C    0.129791
     2  C    0.224105
     3  C   -0.345326
     4  C   -0.345319
     5  C    0.129811
     6  C    0.224028
     7  N    0.470937
     8  H   -0.072501
     9  H   -0.001656
    10  H   -0.034597
    11  H   -0.116399
    12  H   -0.057649
    13  H   -0.032757
    14  H   -0.001691
    15  H   -0.034543
    16  H   -0.072493
    17  H   -0.057698
    18  H   -0.116336
    19  H   -0.032734
    20  H    0.143028
 Sum of APT charges =   0.00000
 APT charges with hydrogens summed into heavy atoms:
               1
     1  C    0.021036
     2  C    0.017299
     3  C   -0.345326
     4  C   -0.345319
     5  C    0.021085
     6  C    0.017260
     7  N    0.613965
 Electronic spatial extent (au):  <R**2>=           1023.3332
 Charge=              0.0000 electrons
 Dipole moment (field-independent basis, Debye):
    X=              0.0004    Y=              0.8585    Z=              0.0001  Tot=              0.8585
 Quadrupole moment (field-independent basis, Debye-Ang):
   XX=            -46.4520   YY=            -43.0769   ZZ=            -47.6220
   XY=              0.0000   XZ=              0.0256   YZ=              0.0000
 Traceless Quadrupole moment (field-independent basis, Debye-Ang):
   XX=             -0.7351   YY=              2.6401   ZZ=             -1.9051
   XY=              0.0000   XZ=              0.0256   YZ=              0.0000
 Octapole moment (field-independent basis, Debye-Ang**2):
  XXX=              0.0024  YYY=              7.2823  ZZZ=              0.0008  XYY=              0.0009
  XXY=             -0.9413  XXZ=             -0.0003  XZZ=              0.0008  YZZ=             -1.0191
  YYZ=             -0.0010  XYZ=             -0.1961
 Hexadecapole moment (field-independent basis, Debye-Ang**3):
 XXXX=           -938.7458 YYYY=           -383.4300 ZZZZ=            -87.5735 XXXY=             -0.0016
 XXXZ=              8.5482 YYYX=              0.0002 YYYZ=             -0.0004 ZZZX=             -2.1195
 ZZZY=              0.0001 XXYY=           -226.8921 XXZZ=           -170.2321 YYZZ=            -79.4529
 XXYZ=             -0.0003 YYXZ=             -0.1900 ZZXY=              0.0009
 N-N= 3.143082676582D+02 E-N=-1.303156570721D+03  KE= 2.896954250088D+02
  Exact polarizability: 130.156  -0.001  70.704  -1.178   0.000  50.311
 Approx polarizability: 226.613  -0.004  91.029  -0.351   0.000  68.818
 Calling FoFJK, ICntrl=    100127 FMM=F ISym2X=0 I1Cent= 0 IOpClX= 0 NMat=1 NMatS=1 NMatT=0.
 Full mass-weighted force constant matrix:
 Low frequencies --- -276.3635 -270.0511 -262.9094 -219.0800 -100.3116  -83.8571
 Low frequencies ---  -75.7928  -42.6201   -0.0009
 ******    5 imaginary frequencies (negative Signs) ****** 
 Diagonal vibrational polarizability:
       11.6102739       3.3693903      14.8236947
 Harmonic frequencies (cm**-1), IR intensities (KM/Mole), Raman scattering
 activities (A**4/AMU), depolarization ratios for plane and unpolarized
 incident light, reduced masses (AMU), force constants (mDyne/A),
 and normal coordinates:
                      1                      2                      3
                      A                      A                      A
 Frequencies --   -275.1233              -268.2989              -254.6830
 Red. masses --      1.0262                 1.0358                 1.0414
 Frc consts  --      0.0458                 0.0439                 0.0398
 IR Inten    --      0.0777                 0.3457                 1.2634
  Atom  AN      X      Y      Z        X      Y      Z        X      Y      Z
     1   6     0.01   0.00  -0.01     0.00   0.00  -0.01     0.01   0.00   0.02
     2   6     0.00   0.01   0.01     0.01   0.01   0.00    -0.01   0.00  -0.03
     3   6    -0.01   0.00  -0.01     0.00   0.00  -0.03     0.00   0.00   0.01
     4   6    -0.01   0.00  -0.01     0.00   0.00   0.03     0.00   0.00   0.01
     5   6     0.01   0.00  -0.01     0.00   0.00   0.01     0.01   0.00   0.02
     6   6     0.00  -0.01   0.01    -0.01   0.01   0.00    -0.01   0.00  -0.03
     7   7    -0.01   0.00   0.00     0.00   0.00   0.00     0.00   0.00   0.01
     8   1     0.33  -0.09  -0.03    -0.01   0.01   0.00     0.25  -0.05   0.01
     9   1    -0.13   0.11  -0.27     0.01  -0.02   0.02    -0.11   0.07  -0.19
    10   1    -0.14  -0.02   0.27     0.01  -0.02  -0.02    -0.11  -0.01   0.24
    11   1     0.15   0.19   0.10     0.26   0.29   0.14    -0.22  -0.21  -0.15
    12   1    -0.10  -0.14   0.17    -0.15  -0.26   0.25     0.13   0.21  -0.23
    13   1    -0.04   0.01  -0.23    -0.07   0.00  -0.41     0.06   0.01   0.28
    14   1    -0.13  -0.11  -0.27    -0.01  -0.02  -0.02    -0.11  -0.07  -0.18
    15   1    -0.14   0.02   0.27    -0.01  -0.02   0.02    -0.11   0.01   0.24
    16   1     0.33   0.09  -0.03     0.01   0.01   0.00     0.25   0.05   0.01
    17   1    -0.10   0.14   0.17     0.15  -0.26  -0.25     0.13  -0.21  -0.23
    18   1     0.15  -0.19   0.10    -0.26   0.29  -0.14    -0.21   0.20  -0.15
    19   1    -0.04  -0.01  -0.23     0.07   0.00   0.41     0.06  -0.01   0.28
    20   1    -0.01   0.00   0.00     0.00   0.00   0.00     0.01   0.00   0.00
                      4                      5                      6
                      A                      A                      A
 Frequencies --   -208.7086              -100.0350               107.2834
 Red. masses --      1.0542                 2.4464                 3.0319
 Frc consts  --      0.0271                 0.0144                 0.0206
 IR Inten    --      0.0312                 0.1500                 0.4048
  Atom  AN      X      Y      Z        X      Y      Z        X      Y      Z
     1   6    -0.03   0.01   0.02    -0.04  -0.03   0.19    -0.05  -0.01   0.07
     2   6     0.00   0.00   0.02     0.00   0.03  -0.11     0.02   0.07  -0.11
     3   6     0.00   0.00  -0.02    -0.01   0.02  -0.12    -0.01  -0.05   0.25
     4   6     0.00   0.00   0.02     0.01   0.02   0.12     0.01  -0.05  -0.25
     5   6     0.03   0.01  -0.02     0.04  -0.03  -0.19     0.05  -0.01  -0.07
     6   6     0.00   0.00  -0.02     0.00   0.03   0.11    -0.02   0.07   0.11
     7   7     0.00  -0.01   0.00     0.00  -0.01   0.00     0.00  -0.06   0.00
     8   1    -0.42   0.13   0.06     0.07   0.18   0.34    -0.16  -0.13  -0.02
     9   1     0.15  -0.13   0.36    -0.14  -0.19   0.19     0.00   0.04   0.09
    10   1     0.15   0.02  -0.32    -0.12  -0.12   0.35     0.00   0.08  -0.05
    11   1     0.01  -0.04   0.02    -0.01   0.00  -0.11    -0.16   0.35  -0.16
    12   1    -0.01   0.02   0.02     0.00   0.06  -0.12     0.13  -0.03  -0.20
    13   1     0.00   0.00   0.06     0.01   0.02  -0.08     0.12   0.03  -0.31
    14   1    -0.15  -0.13  -0.36     0.14  -0.19  -0.19     0.00   0.04  -0.09
    15   1    -0.15   0.02   0.32     0.12  -0.12  -0.35     0.00   0.08   0.05
    16   1     0.42   0.13  -0.06    -0.07   0.18  -0.34     0.16  -0.13   0.02
    17   1     0.01   0.02  -0.02     0.00   0.06   0.12    -0.13  -0.03   0.20
    18   1    -0.01  -0.04  -0.02     0.01   0.00   0.11     0.16   0.35   0.16
    19   1     0.00   0.00  -0.06    -0.01   0.02   0.08    -0.12   0.03   0.31
    20   1     0.00  -0.01   0.00     0.00  -0.01   0.00     0.00  -0.06   0.00
                      7                      8                      9
                      A                      A                      A
 Frequencies --    131.7179               212.1413               297.2758
 Red. masses --      2.5695                 2.6360                 2.7067
 Frc consts  --      0.0263                 0.0699                 0.1409
 IR Inten    --      4.6547                 0.6694                 7.4375
  Atom  AN      X      Y      Z        X      Y      Z        X      Y      Z
     1   6     0.04   0.02  -0.06     0.16   0.02   0.08     0.15   0.08   0.02
     2   6    -0.03   0.03  -0.13    -0.12  -0.10  -0.03    -0.10   0.07   0.01
     3   6    -0.01  -0.01   0.16     0.02   0.05   0.08    -0.07   0.12  -0.10
     4   6    -0.01   0.01   0.16    -0.02   0.05  -0.08    -0.07  -0.12  -0.10
     5   6     0.04  -0.02  -0.06    -0.16   0.02  -0.08     0.15  -0.08   0.02
     6   6    -0.03  -0.03  -0.13     0.12  -0.10   0.03    -0.10  -0.07   0.01
     7   7    -0.01   0.00   0.19     0.00   0.12   0.00    -0.04   0.00   0.05
     8   1    -0.01  -0.13  -0.16     0.11   0.03   0.08     0.22   0.17   0.09
     9   1     0.11   0.14  -0.07     0.25   0.06   0.16     0.33   0.18   0.16
    10   1     0.09   0.07  -0.15     0.21  -0.08  -0.01     0.22  -0.21  -0.06
    11   1    -0.19   0.24  -0.18    -0.16  -0.12  -0.05    -0.04  -0.02   0.03
    12   1     0.08  -0.11  -0.22    -0.04  -0.31  -0.07    -0.12   0.09   0.04
    13   1    -0.02   0.01  -0.31    -0.31  -0.05  -0.09    -0.14   0.09   0.07
    14   1     0.11  -0.14  -0.07    -0.25   0.06  -0.16     0.33  -0.18   0.16
    15   1     0.09  -0.07  -0.15    -0.21  -0.08   0.01     0.22   0.21  -0.06
    16   1    -0.01   0.13  -0.16    -0.11   0.03  -0.08     0.22  -0.17   0.09
    17   1     0.08   0.11  -0.22     0.04  -0.31   0.07    -0.12  -0.09   0.04
    18   1    -0.19  -0.24  -0.18     0.16  -0.12   0.05    -0.04   0.02   0.03
    19   1    -0.02  -0.01  -0.31     0.31  -0.05   0.09    -0.14  -0.09   0.07
    20   1    -0.02   0.00   0.23     0.00   0.12   0.00     0.08   0.00   0.18
                     10                     11                     12
                      A                      A                      A
 Frequencies --    341.8305               381.2813               434.8325
 Red. masses --      2.2815                 2.3345                 2.6736
 Frc consts  --      0.1571                 0.2000                 0.2978
 IR Inten    --      0.1845                13.7092                 9.6376
  Atom  AN      X      Y      Z        X      Y      Z        X      Y      Z
     1   6     0.17  -0.06   0.02     0.06  -0.08  -0.02     0.02   0.13   0.01
     2   6     0.13   0.08   0.01     0.02   0.09   0.04    -0.08  -0.05   0.01
     3   6     0.03  -0.02  -0.02    -0.08  -0.06   0.10     0.05   0.08   0.13
     4   6    -0.03  -0.02   0.02    -0.08   0.06   0.10     0.05  -0.08   0.13
     5   6    -0.17  -0.06  -0.02     0.06   0.08  -0.02     0.02  -0.13   0.01
     6   6    -0.13   0.08  -0.01     0.02  -0.09   0.04    -0.08   0.05   0.01
     7   7     0.00  -0.01   0.00    -0.08   0.00  -0.17     0.07   0.00  -0.20
     8   1     0.17  -0.03   0.04     0.07  -0.20  -0.10    -0.01   0.01  -0.07
     9   1     0.29   0.02   0.11     0.19   0.11   0.00     0.01   0.19  -0.05
    10   1     0.24  -0.22  -0.07     0.12  -0.16  -0.13     0.03   0.21  -0.02
    11   1     0.12   0.14   0.01     0.00   0.20   0.04    -0.10  -0.14  -0.01
    12   1     0.09   0.25   0.01    -0.01   0.28   0.03    -0.01  -0.27  -0.01
    13   1     0.31   0.02   0.04     0.25   0.03   0.06    -0.31   0.02   0.00
    14   1    -0.29   0.02  -0.11     0.19  -0.11   0.00     0.01  -0.19  -0.05
    15   1    -0.24  -0.22   0.07     0.12   0.16  -0.13     0.03  -0.21  -0.02
    16   1    -0.17  -0.03  -0.04     0.07   0.20  -0.10    -0.01  -0.01  -0.07
    17   1    -0.09   0.25  -0.01    -0.01  -0.28   0.03    -0.01   0.27  -0.01
    18   1    -0.12   0.14  -0.01     0.00  -0.20   0.04    -0.10   0.14  -0.01
    19   1    -0.31   0.02  -0.04     0.25  -0.03   0.06    -0.31  -0.02   0.00
    20   1     0.00  -0.01   0.00    -0.10   0.00  -0.41     0.18   0.00  -0.50
                     13                     14                     15
                      A                      A                      A
 Frequencies --    595.6872               816.2691               838.5003
 Red. masses --      3.2684                 3.6882                 2.6305
 Frc consts  --      0.6833                 1.4479                 1.0897
 IR Inten    --      1.0426                 2.5023                10.8090
  Atom  AN      X      Y      Z        X      Y      Z        X      Y      Z
     1   6     0.00   0.08   0.01     0.03   0.23   0.04     0.00  -0.16  -0.02
     2   6     0.21  -0.14  -0.03     0.05  -0.05  -0.02    -0.11   0.13   0.02
     3   6     0.14  -0.01   0.02    -0.05  -0.01  -0.02     0.07   0.03  -0.02
     4   6    -0.14  -0.01  -0.02     0.05  -0.01   0.02     0.07  -0.03  -0.02
     5   6     0.00   0.08  -0.01    -0.03   0.23  -0.04     0.00   0.16  -0.02
     6   6    -0.21  -0.14   0.03    -0.05  -0.05   0.02    -0.11  -0.13   0.02
     7   7     0.00   0.14   0.00     0.00  -0.31   0.00     0.13   0.00   0.08
     8   1    -0.12   0.11   0.02     0.16   0.15   0.01    -0.08  -0.17  -0.04
     9   1    -0.18  -0.13  -0.04     0.18   0.44   0.06    -0.10  -0.26  -0.07
    10   1    -0.07   0.34   0.09     0.08   0.01  -0.01    -0.01  -0.02  -0.01
    11   1     0.17  -0.13  -0.05     0.07  -0.14  -0.02    -0.07  -0.02   0.02
    12   1     0.23  -0.20  -0.05     0.06  -0.14   0.00    -0.09   0.00   0.03
    13   1     0.16  -0.13  -0.05    -0.04  -0.02   0.00    -0.31   0.19   0.07
    14   1     0.18  -0.13   0.04    -0.18   0.44  -0.06    -0.10   0.26  -0.07
    15   1     0.07   0.34  -0.09    -0.08   0.01   0.01    -0.01   0.02  -0.01
    16   1     0.12   0.11  -0.02    -0.16   0.15  -0.01    -0.08   0.17  -0.04
    17   1    -0.23  -0.20   0.05    -0.06  -0.14   0.00    -0.09   0.00   0.03
    18   1    -0.17  -0.13   0.05    -0.07  -0.14   0.02    -0.07   0.02   0.02
    19   1    -0.16  -0.13   0.05     0.04  -0.02   0.00    -0.31  -0.19   0.07
    20   1     0.00   0.14   0.00     0.00  -0.31   0.00     0.24   0.00  -0.52
                     16                     17                     18
                      A                      A                      A
 Frequencies --    861.2315               983.5468               984.5969
 Red. masses --      1.4417                 1.4254                 1.3983
 Frc consts  --      0.6300                 0.8124                 0.7987
 IR Inten    --     52.8339                 0.0336                 0.1709
  Atom  AN      X      Y      Z        X      Y      Z        X      Y      Z
     1   6     0.00   0.04   0.02     0.07   0.05  -0.03     0.09   0.04  -0.01
     2   6     0.03  -0.04  -0.03    -0.08  -0.04   0.03    -0.08  -0.02   0.01
     3   6    -0.03   0.00  -0.03     0.00  -0.04   0.00     0.02  -0.03  -0.01
     4   6    -0.03   0.00  -0.03     0.00  -0.03   0.00     0.02   0.03  -0.01
     5   6     0.00  -0.04   0.02    -0.07   0.05   0.03     0.09  -0.04  -0.01
     6   6     0.03   0.04  -0.03     0.08  -0.04  -0.03    -0.08   0.02   0.01
     7   7    -0.04   0.00   0.14     0.00  -0.03   0.00     0.00   0.00  -0.01
     8   1    -0.02  -0.05  -0.04    -0.05   0.25   0.09    -0.13   0.15   0.04
     9   1     0.02   0.11  -0.02    -0.12  -0.26  -0.01    -0.16  -0.29  -0.06
    10   1     0.02   0.08  -0.03    -0.03   0.20   0.12    -0.01   0.33   0.12
    11   1     0.14  -0.07   0.02    -0.15   0.29   0.03    -0.08   0.23   0.04
    12   1    -0.06   0.05   0.05    -0.06   0.20  -0.04    -0.12   0.23   0.00
    13   1     0.09  -0.05   0.05     0.30  -0.16  -0.09     0.25  -0.12  -0.05
    14   1     0.02  -0.11  -0.02     0.12  -0.25   0.01    -0.16   0.29  -0.06
    15   1     0.02  -0.08  -0.03     0.03   0.20  -0.12    -0.01  -0.33   0.12
    16   1    -0.02   0.05  -0.04     0.05   0.25  -0.09    -0.13  -0.15   0.04
    17   1    -0.06  -0.05   0.05     0.06   0.20   0.05    -0.12  -0.23   0.00
    18   1     0.14   0.07   0.02     0.15   0.28  -0.03    -0.08  -0.23   0.04
    19   1     0.09   0.05   0.05    -0.30  -0.16   0.09     0.26   0.12  -0.05
    20   1     0.01   0.00  -0.90     0.00  -0.03   0.00    -0.01   0.00  -0.03
                     19                     20                     21
                      A                      A                      A
 Frequencies --   1007.3766              1017.5058              1026.2057
 Red. masses --      1.3235                 1.5417                 1.2344
 Frc consts  --      0.7914                 0.9404                 0.7659
 IR Inten    --      9.9607                 0.0304                21.3026
  Atom  AN      X      Y      Z        X      Y      Z        X      Y      Z
     1   6     0.06   0.00   0.06    -0.07   0.02   0.03     0.02   0.00   0.07
     2   6    -0.04   0.03  -0.06    -0.02  -0.09  -0.04    -0.02   0.02  -0.06
     3   6     0.02  -0.03   0.00    -0.05   0.00   0.00     0.01  -0.02  -0.01
     4   6    -0.02  -0.03   0.00     0.05   0.00   0.00     0.01   0.02  -0.01
     5   6    -0.06   0.00  -0.06     0.07   0.02  -0.03     0.02   0.00   0.07
     6   6     0.04   0.03   0.06     0.02  -0.09   0.04    -0.02  -0.02  -0.06
     7   7     0.00  -0.03   0.00     0.00   0.09   0.00     0.00   0.00  -0.02
     8   1    -0.18  -0.24  -0.12     0.07  -0.14  -0.05    -0.13  -0.31  -0.15
     9   1    -0.10  -0.02  -0.12     0.12   0.30   0.04    -0.02   0.14  -0.10
    10   1     0.06   0.40  -0.01     0.02  -0.15  -0.09     0.07   0.26  -0.07
    11   1     0.24  -0.15   0.05     0.16   0.07   0.06     0.25  -0.18   0.04
    12   1    -0.23   0.15   0.14    -0.20   0.27   0.07    -0.21   0.12   0.13
    13   1    -0.05   0.05   0.11     0.35  -0.19   0.01    -0.04   0.04   0.12
    14   1     0.09  -0.02   0.12    -0.12   0.30  -0.04    -0.02  -0.14  -0.10
    15   1    -0.06   0.40   0.01    -0.02  -0.15   0.09     0.07  -0.26  -0.07
    16   1     0.18  -0.24   0.12    -0.07  -0.14   0.05    -0.13   0.31  -0.15
    17   1     0.23   0.15  -0.14     0.20   0.27  -0.07    -0.21  -0.12   0.13
    18   1    -0.24  -0.15  -0.05    -0.16   0.07  -0.06     0.25   0.18   0.04
    19   1     0.05   0.05  -0.11    -0.35  -0.19  -0.01    -0.04  -0.04   0.12
    20   1     0.00  -0.04   0.00     0.00   0.10   0.00    -0.06   0.00   0.32
                     22                     23                     24
                      A                      A                      A
 Frequencies --   1079.5326              1083.2902              1120.0446
 Red. masses --      1.4656                 1.4398                 1.6854
 Frc consts  --      1.0063                 0.9955                 1.2457
 IR Inten    --     74.6104                 0.4234                54.0340
  Atom  AN      X      Y      Z        X      Y      Z        X      Y      Z
     1   6     0.00  -0.01   0.07     0.00   0.01  -0.07     0.08   0.00   0.00
     2   6     0.00  -0.02   0.08     0.00   0.01  -0.07     0.08   0.07   0.02
     3   6    -0.01   0.02  -0.09     0.01  -0.01   0.09    -0.04  -0.03  -0.01
     4   6    -0.01  -0.02  -0.09    -0.01  -0.01  -0.09    -0.04   0.03  -0.01
     5   6     0.00   0.01   0.07     0.00   0.01   0.07     0.08   0.00   0.00
     6   6     0.00   0.02   0.08     0.00   0.01   0.07     0.08  -0.07   0.02
     7   7     0.03   0.00   0.00     0.00  -0.01   0.00    -0.13   0.00   0.00
     8   1    -0.09  -0.32  -0.14     0.11   0.33   0.15    -0.13   0.06   0.01
     9   1     0.00   0.19  -0.09     0.00  -0.19   0.09    -0.11  -0.21  -0.07
    10   1     0.07   0.15  -0.10    -0.07  -0.21   0.09     0.00   0.28   0.09
    11   1    -0.32   0.22  -0.04     0.29  -0.20   0.04    -0.06  -0.16  -0.06
    12   1     0.22  -0.08  -0.16    -0.22   0.09   0.16     0.20  -0.28  -0.04
    13   1     0.07  -0.06  -0.15    -0.06   0.05   0.15    -0.30   0.17   0.01
    14   1     0.00  -0.19  -0.09     0.00  -0.19  -0.09    -0.11   0.21  -0.07
    15   1     0.07  -0.15  -0.10     0.07  -0.21  -0.09     0.00  -0.28   0.09
    16   1    -0.09   0.32  -0.14    -0.11   0.33  -0.15    -0.13  -0.06   0.01
    17   1     0.22   0.08  -0.16     0.22   0.09  -0.16     0.20   0.28  -0.04
    18   1    -0.32  -0.22  -0.04    -0.29  -0.20  -0.04    -0.06   0.16  -0.06
    19   1     0.07   0.06  -0.15     0.06   0.05  -0.15    -0.30  -0.17   0.01
    20   1     0.04   0.00   0.00     0.00  -0.01   0.00    -0.23   0.00  -0.05
                     25                     26                     27
                      A                      A                      A
 Frequencies --   1225.2909              1338.4101              1427.4443
 Red. masses --      3.2993                 5.5235                 1.2108
 Frc consts  --      2.9184                 5.8297                 1.4536
 IR Inten    --      1.3015                 2.2405                24.6817
  Atom  AN      X      Y      Z        X      Y      Z        X      Y      Z
     1   6    -0.04   0.12   0.01     0.07  -0.12  -0.01    -0.02  -0.09  -0.01
     2   6    -0.07   0.09   0.03     0.09  -0.10  -0.03     0.01  -0.01   0.00
     3   6     0.12  -0.24  -0.05    -0.25   0.31   0.06     0.01   0.00   0.00
     4   6     0.12   0.24  -0.05     0.25   0.31  -0.06     0.01   0.00   0.00
     5   6    -0.04  -0.12   0.01    -0.07  -0.12   0.01    -0.02   0.09  -0.01
     6   6    -0.07  -0.09   0.03    -0.09  -0.10   0.03     0.01   0.01   0.00
     7   7     0.03   0.00   0.02     0.00  -0.11   0.00    -0.01   0.00   0.00
     8   1     0.16   0.08   0.02    -0.25  -0.01   0.01     0.07   0.30   0.21
     9   1     0.14   0.25   0.12    -0.16  -0.25  -0.18     0.22   0.34  -0.02
    10   1     0.01  -0.10  -0.03    -0.01   0.17   0.06    -0.05   0.41   0.00
    11   1    -0.11   0.04   0.00     0.09  -0.05  -0.01    -0.05   0.06  -0.01
    12   1    -0.02   0.03  -0.02     0.04  -0.10   0.02    -0.04   0.07   0.02
    13   1    -0.19   0.12  -0.01     0.18  -0.12   0.04    -0.07   0.02   0.00
    14   1     0.14  -0.25   0.12     0.16  -0.25   0.18     0.22  -0.34  -0.02
    15   1     0.01   0.10  -0.03     0.01   0.17  -0.06    -0.05  -0.41   0.00
    16   1     0.16  -0.08   0.02     0.26  -0.01  -0.01     0.07  -0.30   0.21
    17   1    -0.02  -0.03  -0.02    -0.04  -0.10  -0.02    -0.04  -0.07   0.02
    18   1    -0.11  -0.04   0.00    -0.09  -0.05   0.01    -0.05  -0.06  -0.01
    19   1    -0.19  -0.12  -0.01    -0.18  -0.12  -0.04    -0.07  -0.02   0.00
    20   1    -0.61   0.00  -0.12     0.00  -0.08   0.00     0.00   0.00  -0.01
                     28                     29                     30
                      A                      A                      A
 Frequencies --   1437.3824              1439.7129              1456.5914
 Red. masses --      1.1764                 1.2173                 1.2168
 Frc consts  --      1.4321                 1.4866                 1.5211
 IR Inten    --      3.9326                54.9760                 0.1468
  Atom  AN      X      Y      Z        X      Y      Z        X      Y      Z
     1   6     0.01   0.06   0.01     0.01   0.02   0.00    -0.01  -0.06  -0.01
     2   6    -0.04   0.03   0.01     0.07  -0.06  -0.02    -0.06   0.04   0.00
     3   6     0.00   0.01   0.00    -0.01   0.00   0.00     0.02   0.00   0.00
     4   6     0.00   0.01   0.00    -0.01   0.00   0.00    -0.02   0.00   0.00
     5   6    -0.01   0.06  -0.01     0.01  -0.02   0.00     0.01  -0.06   0.01
     6   6     0.04   0.03  -0.01     0.07   0.06  -0.02     0.06   0.04   0.00
     7   7     0.00   0.00   0.00     0.02   0.00   0.00     0.00   0.00   0.00
     8   1    -0.04  -0.25  -0.17    -0.02  -0.04  -0.03     0.03   0.20   0.14
     9   1    -0.17  -0.27   0.03    -0.04  -0.07   0.00     0.16   0.23  -0.01
    10   1     0.04  -0.30  -0.01     0.01  -0.07   0.00    -0.05   0.25   0.02
    11   1     0.16  -0.17   0.06    -0.23   0.28  -0.09     0.19  -0.18   0.07
    12   1     0.13  -0.20  -0.11    -0.20   0.30   0.17     0.14  -0.26  -0.12
    13   1     0.26  -0.07  -0.03    -0.40   0.11   0.09     0.32  -0.08  -0.01
    14   1     0.17  -0.27  -0.03    -0.05   0.07   0.00    -0.16   0.23   0.01
    15   1    -0.04  -0.30   0.01     0.01   0.07   0.00     0.05   0.25  -0.02
    16   1     0.04  -0.25   0.17    -0.02   0.05  -0.03    -0.03   0.20  -0.14
    17   1    -0.13  -0.20   0.11    -0.20  -0.29   0.17    -0.14  -0.26   0.12
    18   1    -0.16  -0.17  -0.06    -0.23  -0.28  -0.09    -0.19  -0.18  -0.07
    19   1    -0.26  -0.07   0.03    -0.40  -0.11   0.09    -0.32  -0.08   0.01
    20   1     0.00   0.00   0.00    -0.09   0.00   0.00     0.00   0.00   0.00
                     31                     32                     33
                      A                      A                      A
 Frequencies --   1484.4469              1490.5415              1491.1620
 Red. masses --      2.2105                 1.0501                 1.0790
 Frc consts  --      2.8700                 1.3746                 1.4136
 IR Inten    --      8.1513                 6.1260                 3.4122
  Atom  AN      X      Y      Z        X      Y      Z        X      Y      Z
     1   6     0.05   0.03  -0.01     0.01  -0.01   0.01     0.01   0.00  -0.01
     2   6     0.05   0.04  -0.01    -0.01   0.01  -0.04     0.01   0.00   0.04
     3   6    -0.16  -0.12  -0.02     0.00   0.00  -0.01    -0.03  -0.01   0.01
     4   6     0.16  -0.12   0.02     0.00   0.00  -0.01     0.03  -0.01  -0.01
     5   6    -0.05   0.03   0.01     0.01   0.01   0.01    -0.01   0.00   0.01
     6   6    -0.05   0.04   0.01    -0.01  -0.01  -0.04    -0.01   0.00  -0.04
     7   7     0.00   0.11   0.00     0.01   0.00   0.00     0.00   0.02   0.00
     8   1    -0.31   0.03  -0.04    -0.08   0.10   0.06    -0.05   0.00  -0.01
     9   1     0.09   0.10   0.01    -0.09   0.08  -0.17     0.06   0.01   0.05
    10   1    -0.14  -0.01   0.30     0.06  -0.08  -0.08    -0.05   0.03   0.10
    11   1    -0.19  -0.11  -0.12    -0.07   0.27  -0.01     0.06  -0.34   0.00
    12   1    -0.09  -0.29   0.20    -0.05  -0.35   0.11     0.06   0.30  -0.11
    13   1     0.08   0.02   0.11     0.14   0.01   0.44    -0.10  -0.02  -0.48
    14   1    -0.09   0.10  -0.01    -0.08  -0.08  -0.17    -0.06   0.01  -0.05
    15   1     0.14  -0.01  -0.30     0.05   0.08  -0.08     0.06   0.03  -0.10
    16   1     0.31   0.03   0.04    -0.08  -0.10   0.06     0.05   0.00   0.01
    17   1     0.09  -0.29  -0.20    -0.05   0.34   0.11    -0.06   0.31   0.11
    18   1     0.19  -0.11   0.12    -0.06  -0.26  -0.01    -0.07  -0.35   0.00
    19   1    -0.08   0.02  -0.11     0.14  -0.01   0.43     0.10  -0.02   0.48
    20   1     0.00   0.10   0.00    -0.06   0.00   0.01     0.00   0.01   0.00
                     34                     35                     36
                      A                      A                      A
 Frequencies --   1501.4773              1514.3239              1529.9689
 Red. masses --      1.0455                 1.0963                 1.0711
 Frc consts  --      1.3887                 1.4813                 1.4773
 IR Inten    --     38.6646                10.3966                13.6840
  Atom  AN      X      Y      Z        X      Y      Z        X      Y      Z
     1   6    -0.02   0.01  -0.03     0.00   0.00   0.04    -0.01   0.01   0.01
     2   6     0.00   0.00  -0.01     0.01   0.02   0.01     0.03   0.03   0.00
     3   6     0.00   0.00  -0.01    -0.03  -0.03   0.01    -0.01  -0.03   0.00
     4   6     0.00   0.00  -0.01     0.03  -0.03  -0.01    -0.01   0.03   0.00
     5   6    -0.02  -0.01  -0.03     0.00   0.00  -0.04    -0.01  -0.01   0.01
     6   6     0.00   0.00  -0.01    -0.01   0.02  -0.01     0.03  -0.03   0.00
     7   7     0.00   0.00   0.00     0.00   0.02   0.00     0.01   0.00   0.00
     8   1     0.15  -0.23  -0.14     0.08   0.20   0.15     0.18   0.02   0.03
     9   1     0.23  -0.13   0.39    -0.27   0.01  -0.32    -0.06  -0.07  -0.01
    10   1    -0.15   0.20   0.21     0.22  -0.06  -0.36     0.08   0.06  -0.16
    11   1    -0.05   0.11  -0.02    -0.10  -0.16  -0.06    -0.33  -0.24  -0.17
    12   1    -0.03  -0.15   0.06    -0.06  -0.03   0.09    -0.23  -0.09   0.29
    13   1     0.06   0.00   0.18     0.06  -0.02  -0.11     0.17  -0.05  -0.13
    14   1     0.23   0.13   0.39     0.27   0.01   0.32    -0.06   0.07   0.00
    15   1    -0.15  -0.20   0.21    -0.22  -0.06   0.36     0.08  -0.06  -0.16
    16   1     0.15   0.22  -0.14    -0.08   0.20  -0.15     0.18  -0.02   0.03
    17   1    -0.03   0.15   0.06     0.06  -0.03  -0.09    -0.23   0.09   0.29
    18   1    -0.05  -0.11  -0.02     0.10  -0.16   0.06    -0.33   0.24  -0.17
    19   1     0.06   0.00   0.18    -0.06  -0.02   0.11     0.17   0.05  -0.13
    20   1     0.05   0.00   0.02     0.00   0.02   0.00     0.26   0.00   0.01
                     37                     38                     39
                      A                      A                      A
 Frequencies --   1538.0681              1538.7518              1573.4188
 Red. masses --      1.0707                 1.0496                 1.3791
 Frc consts  --      1.4924                 1.4642                 2.0116
 IR Inten    --      5.1978                 3.2425                 0.6534
  Atom  AN      X      Y      Z        X      Y      Z        X      Y      Z
     1   6    -0.03   0.00   0.02    -0.03   0.00  -0.01     0.01  -0.02   0.00
     2   6    -0.01  -0.01   0.00     0.02   0.02   0.00     0.00   0.01   0.00
     3   6     0.01   0.02   0.00     0.00   0.02   0.00     0.11   0.06   0.00
     4   6     0.01  -0.02   0.00     0.00   0.02   0.00    -0.11   0.06   0.00
     5   6    -0.03   0.00   0.02     0.03   0.00   0.01    -0.01  -0.02   0.00
     6   6    -0.01   0.01   0.00    -0.02   0.02   0.00     0.00   0.01   0.00
     7   7    -0.03   0.00   0.00     0.00  -0.01   0.00     0.00  -0.05   0.00
     8   1     0.43  -0.02   0.04     0.33  -0.13  -0.05    -0.32   0.02  -0.01
     9   1    -0.13  -0.22   0.03     0.08  -0.18   0.25     0.02   0.17  -0.13
    10   1     0.18   0.16  -0.35     0.00   0.22  -0.06    -0.07  -0.24   0.15
    11   1     0.12   0.11   0.07    -0.24  -0.16  -0.13    -0.26  -0.13  -0.12
    12   1     0.09   0.02  -0.11    -0.17  -0.08   0.21    -0.21   0.00   0.23
    13   1    -0.06   0.02   0.07     0.16  -0.04  -0.08     0.18  -0.06  -0.11
    14   1    -0.13   0.21   0.03    -0.08  -0.18  -0.25    -0.02   0.17   0.13
    15   1     0.18  -0.16  -0.35     0.00   0.22   0.06     0.07  -0.24  -0.15
    16   1     0.42   0.02   0.04    -0.34  -0.13   0.05     0.32   0.02   0.01
    17   1     0.09  -0.02  -0.11     0.17  -0.08  -0.21     0.21   0.00  -0.23
    18   1     0.12  -0.11   0.07     0.24  -0.15   0.13     0.26  -0.13   0.12
    19   1    -0.06  -0.02   0.07    -0.16  -0.04   0.08    -0.18  -0.06   0.11
    20   1    -0.14   0.00  -0.02     0.00  -0.01   0.00     0.00  -0.05   0.00
                     40                     41                     42
                      A                      A                      A
 Frequencies --   1605.4249              1751.5705              3076.0541
 Red. masses --      1.2347                 6.3822                 1.0419
 Frc consts  --      1.8750                11.5366                 5.8087
 IR Inten    --     63.4998               279.3787               245.1938
  Atom  AN      X      Y      Z        X      Y      Z        X      Y      Z
     1   6     0.00  -0.02  -0.01    -0.02  -0.01   0.01     0.00   0.00   0.00
     2   6     0.00   0.00   0.00    -0.01   0.00   0.01     0.03  -0.01  -0.03
     3   6     0.03   0.09   0.01     0.32   0.09  -0.01     0.00   0.00   0.00
     4   6     0.03  -0.09   0.01     0.32  -0.09  -0.01     0.00   0.00   0.00
     5   6     0.00   0.02  -0.01    -0.02   0.01   0.01     0.00   0.00   0.00
     6   6     0.00   0.00   0.00    -0.01   0.00   0.01     0.02   0.01  -0.03
     7   7     0.02   0.00   0.00    -0.47   0.00   0.00     0.00   0.00   0.00
     8   1    -0.02  -0.03  -0.02    -0.11  -0.11  -0.09     0.01   0.03  -0.05
     9   1     0.01  -0.02   0.01     0.00   0.07  -0.02    -0.01   0.01   0.01
    10   1    -0.02  -0.01   0.03    -0.02  -0.22   0.04     0.02   0.00   0.01
    11   1    -0.11  -0.11  -0.06    -0.16   0.13  -0.06    -0.23  -0.08   0.55
    12   1    -0.09  -0.02   0.10    -0.10   0.08   0.10    -0.17  -0.04  -0.18
    13   1     0.15  -0.05  -0.08     0.02  -0.01   0.01     0.09   0.28  -0.04
    14   1     0.01   0.02   0.01     0.00  -0.07  -0.02    -0.01   0.00   0.01
    15   1    -0.02   0.01   0.03    -0.02   0.22   0.04     0.02   0.00   0.01
    16   1    -0.02   0.03  -0.02    -0.11   0.11  -0.09     0.00  -0.02  -0.04
    17   1    -0.09   0.02   0.10    -0.10  -0.08   0.10    -0.16   0.04  -0.17
    18   1    -0.11   0.11  -0.06    -0.16  -0.13  -0.06    -0.22   0.07   0.53
    19   1     0.15   0.05  -0.08     0.02   0.01   0.01     0.09  -0.27  -0.04
    20   1    -0.90   0.00  -0.07     0.48   0.00  -0.01     0.00   0.00   0.00
                     43                     44                     45
                      A                      A                      A
 Frequencies --   3078.9547              3083.1027              3091.6913
 Red. masses --      1.0435                 1.0476                 1.0555
 Frc consts  --      5.8286                 5.8669                 5.9444
 IR Inten    --     88.7082               129.5710                49.0572
  Atom  AN      X      Y      Z        X      Y      Z        X      Y      Z
     1   6     0.00  -0.01   0.01     0.01   0.03  -0.03     0.01   0.03  -0.03
     2   6     0.02  -0.01  -0.03     0.00   0.00   0.00     0.01   0.00  -0.01
     3   6     0.00   0.00   0.00     0.00   0.00   0.00     0.00   0.00   0.00
     4   6     0.00   0.00   0.00     0.00   0.00   0.00     0.00   0.00   0.00
     5   6     0.00  -0.01  -0.01     0.01  -0.03  -0.02    -0.01   0.03   0.03
     6   6    -0.02  -0.01   0.03     0.00   0.00   0.00    -0.01   0.00   0.01
     7   7     0.00   0.00   0.00     0.00   0.00   0.00     0.00   0.00   0.00
     8   1     0.02   0.12  -0.20    -0.05  -0.32   0.54    -0.05  -0.32   0.53
     9   1    -0.04   0.02   0.04     0.15  -0.08  -0.13     0.08  -0.04  -0.08
    10   1     0.08   0.00   0.05    -0.19   0.00  -0.12    -0.14   0.00  -0.10
    11   1    -0.21  -0.07   0.50    -0.02  -0.01   0.05    -0.09  -0.03   0.21
    12   1    -0.15  -0.04  -0.16    -0.01   0.00  -0.01    -0.04  -0.01  -0.04
    13   1     0.08   0.24  -0.03     0.01   0.03   0.00     0.03   0.09  -0.01
    14   1     0.04   0.02  -0.04     0.15   0.08  -0.13    -0.08  -0.04   0.08
    15   1    -0.08   0.00  -0.05    -0.19   0.00  -0.12     0.14   0.00   0.10
    16   1    -0.02   0.12   0.20    -0.05   0.32   0.54     0.05  -0.32  -0.53
    17   1     0.16  -0.04   0.17    -0.01   0.00  -0.01     0.04  -0.01   0.04
    18   1     0.22  -0.07  -0.52    -0.02   0.01   0.04     0.09  -0.03  -0.21
    19   1    -0.08   0.26   0.03     0.01  -0.03   0.00    -0.03   0.09   0.01
    20   1     0.00   0.00   0.00     0.00   0.00   0.00     0.00  -0.01   0.00
                     46                     47                     48
                      A                      A                      A
 Frequencies --   3136.0811              3136.3340              3154.6011
 Red. masses --      1.0877                 1.0896                 1.0818
 Frc consts  --      6.3029                 6.3150                 6.3426
 IR Inten    --     27.2680                79.6834                 3.3182
  Atom  AN      X      Y      Z        X      Y      Z        X      Y      Z
     1   6     0.00   0.00   0.00     0.00   0.00   0.00    -0.03   0.00  -0.05
     2   6    -0.01   0.03  -0.06     0.00   0.03  -0.05     0.00   0.00   0.01
     3   6     0.00   0.00   0.00     0.00   0.00   0.00     0.00   0.00   0.00
     4   6     0.00   0.00   0.00     0.00   0.00   0.00     0.00   0.00   0.00
     5   6     0.00   0.00   0.00     0.00   0.00   0.00     0.03   0.00   0.05
     6   6     0.00   0.03   0.04     0.00  -0.03  -0.06     0.00   0.00  -0.01
     7   7     0.00   0.00   0.00     0.00   0.00   0.00     0.00   0.00   0.00
     8   1     0.00   0.00  -0.01     0.00  -0.01   0.01    -0.03  -0.12   0.17
     9   1    -0.02   0.02   0.02     0.00   0.00   0.00    -0.19   0.11   0.13
    10   1     0.07   0.00   0.04     0.02   0.00   0.01     0.55   0.03   0.29
    11   1    -0.16  -0.04   0.35    -0.13  -0.03   0.29     0.02   0.01  -0.05
    12   1     0.36   0.09   0.31     0.27   0.07   0.23    -0.04  -0.01  -0.04
    13   1    -0.15  -0.47   0.03    -0.11  -0.34   0.02     0.01   0.01   0.00
    14   1     0.02   0.01  -0.02    -0.01  -0.01   0.01     0.19   0.11  -0.13
    15   1    -0.06   0.00  -0.03     0.04   0.00   0.02    -0.54   0.03  -0.29
    16   1     0.00   0.00   0.01     0.00   0.01   0.01     0.03  -0.11  -0.17
    17   1    -0.27   0.07  -0.24     0.35  -0.09   0.31     0.04  -0.01   0.04
    18   1     0.12  -0.03  -0.26    -0.17   0.04   0.37    -0.02   0.01   0.05
    19   1     0.11  -0.35  -0.02    -0.14   0.46   0.03    -0.01   0.01   0.00
    20   1     0.00  -0.01   0.00    -0.01   0.00   0.00     0.00   0.00   0.00
                     49                     50                     51
                      A                      A                      A
 Frequencies --   3162.4263              3180.5337              3181.0404
 Red. masses --      1.0869                 1.0988                 1.0989
 Frc consts  --      6.4044                 6.5487                 6.5516
 IR Inten    --     75.3394                77.3847                36.0874
  Atom  AN      X      Y      Z        X      Y      Z        X      Y      Z
     1   6    -0.03   0.00  -0.05     0.00   0.00   0.00     0.00   0.00   0.00
     2   6     0.00   0.00   0.00    -0.04  -0.04  -0.02    -0.04  -0.04  -0.02
     3   6     0.00   0.00   0.00     0.00   0.00   0.00     0.00   0.00   0.00
     4   6     0.00   0.00   0.00     0.00   0.00   0.00     0.00   0.00   0.00
     5   6    -0.03   0.00  -0.05     0.00   0.00   0.00     0.00   0.00   0.00
     6   6     0.00   0.00   0.00    -0.04   0.04  -0.02     0.04  -0.04   0.02
     7   7     0.00   0.00   0.00     0.00   0.00   0.00     0.00   0.00   0.00
     8   1    -0.04  -0.14   0.21     0.00  -0.01   0.01     0.00   0.00   0.00
     9   1    -0.12   0.07   0.08    -0.02   0.01   0.02    -0.02   0.01   0.01
    10   1     0.55   0.03   0.30     0.03   0.00   0.02     0.02   0.00   0.01
    11   1     0.01   0.00  -0.02     0.00  -0.01  -0.04     0.00  -0.01  -0.04
    12   1    -0.04  -0.01  -0.04     0.36   0.08   0.34     0.37   0.08   0.35
    13   1     0.00  -0.01   0.00     0.14   0.46  -0.05     0.14   0.46  -0.05
    14   1    -0.13  -0.08   0.08    -0.02  -0.01   0.02     0.02   0.01  -0.01
    15   1     0.56  -0.04   0.30     0.03   0.00   0.02    -0.02   0.00  -0.01
    16   1    -0.04   0.14   0.22     0.00   0.01   0.01     0.00   0.00   0.00
    17   1    -0.04   0.01  -0.04     0.37  -0.08   0.35    -0.36   0.08  -0.34
    18   1     0.01   0.00  -0.02     0.00   0.01  -0.04     0.00  -0.01   0.04
    19   1     0.00   0.01   0.00     0.14  -0.46  -0.05    -0.14   0.46   0.05
    20   1     0.00   0.00   0.00     0.01   0.00   0.00     0.00   0.00   0.00
                     52                     53                     54
                      A                      A                      A
 Frequencies --   3231.5974              3234.3482              3581.0056
 Red. masses --      1.0960                 1.0934                 1.0734
 Frc consts  --      6.7436                 6.7394                 8.1102
 IR Inten    --     40.0108                 4.9599                 0.0574
  Atom  AN      X      Y      Z        X      Y      Z        X      Y      Z
     1   6    -0.05   0.02   0.03    -0.06   0.02   0.02     0.00   0.00   0.00
     2   6     0.00   0.00   0.00     0.00   0.00   0.00     0.00   0.00   0.00
     3   6     0.00   0.00   0.00     0.00   0.00   0.00     0.00   0.00   0.00
     4   6     0.00   0.00   0.00     0.00   0.00   0.00     0.00   0.00   0.00
     5   6    -0.06  -0.02   0.03     0.05   0.02  -0.02     0.00   0.00   0.00
     6   6     0.00   0.00   0.00     0.00   0.00   0.00     0.00   0.00   0.00
     7   7     0.00   0.00   0.00     0.00   0.00   0.00     0.00  -0.07   0.00
     8   1    -0.01   0.07  -0.11    -0.01   0.03  -0.03     0.00   0.00   0.00
     9   1     0.44  -0.28  -0.35     0.47  -0.29  -0.38     0.00   0.00   0.00
    10   1     0.17   0.01   0.11     0.24   0.02   0.15     0.00   0.00   0.00
    11   1     0.00   0.00   0.00     0.00   0.00   0.00     0.00   0.00   0.00
    12   1     0.01   0.00   0.01     0.01   0.00   0.01     0.00   0.00   0.00
    13   1     0.00   0.01   0.00     0.00   0.01   0.00    -0.01   0.00   0.00
    14   1     0.48   0.30  -0.38    -0.44  -0.27   0.35     0.00   0.00   0.00
    15   1     0.19  -0.02   0.12    -0.22   0.02  -0.14     0.00   0.00   0.00
    16   1    -0.01  -0.08  -0.11     0.01   0.02   0.02     0.00   0.00   0.00
    17   1     0.01   0.00   0.01    -0.01   0.00  -0.01     0.00   0.00   0.00
    18   1     0.00   0.00   0.00     0.00   0.00   0.00     0.00   0.00   0.00
    19   1     0.00  -0.01   0.00     0.00   0.01   0.00     0.01   0.00   0.00
    20   1     0.00   0.00   0.00     0.00   0.00   0.00     0.00   1.00   0.00

 -------------------
 - Thermochemistry -
 -------------------
 Temperature   298.150 Kelvin.  Pressure   1.00000 Atm.
 Atom     1 has atomic number  6 and mass  12.00000
 Atom     2 has atomic number  6 and mass  12.00000
 Atom     3 has atomic number  6 and mass  12.00000
 Atom     4 has atomic number  6 and mass  12.00000
 Atom     5 has atomic number  6 and mass  12.00000
 Atom     6 has atomic number  6 and mass  12.00000
 Atom     7 has atomic number  7 and mass  14.00307
 Atom     8 has atomic number  1 and mass   1.00783
 Atom     9 has atomic number  1 and mass   1.00783
 Atom    10 has atomic number  1 and mass   1.00783
 Atom    11 has atomic number  1 and mass   1.00783
 Atom    12 has atomic number  1 and mass   1.00783
 Atom    13 has atomic number  1 and mass   1.00783
 Atom    14 has atomic number  1 and mass   1.00783
 Atom    15 has atomic number  1 and mass   1.00783
 Atom    16 has atomic number  1 and mass   1.00783
 Atom    17 has atomic number  1 and mass   1.00783
 Atom    18 has atomic number  1 and mass   1.00783
 Atom    19 has atomic number  1 and mass   1.00783
 Atom    20 has atomic number  1 and mass   1.00783
 Molecular mass:    99.10480 amu.
 Principal axes and moments of inertia in atomic units:
                           1         2         3
     Eigenvalues --   422.141571088.070731439.47034
           X            1.00000   0.00000  -0.00122
           Y            0.00000   1.00000   0.00000
           Z            0.00122   0.00000   1.00000
 This molecule is an asymmetric top.
 Rotational symmetry number  1.
 Rotational temperatures (Kelvin)      0.20518     0.07960     0.06017
 Rotational constants (GHZ):           4.27520     1.65866     1.25375
    5 imaginary frequencies ignored.
 Zero-point vibrational energy     478457.9 (Joules/Mol)
                                  114.35417 (Kcal/Mol)
 Warning -- explicit consideration of   8 degrees of freedom as
           vibrations may cause significant error
 Vibrational temperatures:    154.36   189.51   305.22   427.71   491.82
          (Kelvin)            548.58   625.63   857.06  1174.43  1206.41
                             1239.12  1415.10  1416.61  1449.39  1463.96
                             1476.48  1553.20  1558.61  1611.49  1762.92
                             1925.67  2053.77  2068.07  2071.42  2095.71
                             2135.79  2144.55  2145.45  2160.29  2178.77
                             2201.28  2212.93  2213.92  2263.80  2309.85
                             2520.12  4425.75  4429.92  4435.89  4448.25
                             4512.12  4512.48  4538.76  4550.02  4576.07
                             4576.80  4649.54  4653.50  5152.26
 
 Zero-point correction=                           0.182235 (Hartree/Particle)
 Thermal correction to Energy=                    0.189126
 Thermal correction to Enthalpy=                  0.190070
 Thermal correction to Gibbs Free Energy=         0.150954
 Sum of electronic and zero-point Energies=           -290.894577
 Sum of electronic and thermal Energies=              -290.887686
 Sum of electronic and thermal Enthalpies=            -290.886742
 Sum of electronic and thermal Free Energies=         -290.925858
 
                     E (Thermal)             CV                S
                      KCal/Mol        Cal/Mol-Kelvin    Cal/Mol-Kelvin
 Total                  118.679             24.764             82.328
 Electronic               0.000              0.000              0.000
 Translational            0.889              2.981             39.691
 Rotational               0.889              2.981             27.983
 Vibrational            116.901             18.802             14.654
 Vibration     1          0.606              1.943              3.317
 Vibration     2          0.612              1.922              2.921
 Vibration     3          0.643              1.822              2.025
 Vibration     4          0.691              1.679              1.432
 Vibration     5          0.721              1.592              1.204
 Vibration     6          0.751              1.510              1.034
 Vibration     7          0.795              1.394              0.843
 Vibration     8          0.953              1.041              0.457
                       Q            Log10(Q)             Ln(Q)
 Total Bot       0.368315D-69        -69.433781       -159.877188
 Total V=0       0.244517D+15         14.388310         33.130307
 Vib (Bot)       0.326300D-82        -82.486383       -189.931916
 Vib (Bot)    1  0.191016D+01          0.281070          0.647187
 Vib (Bot)    2  0.154707D+01          0.189510          0.436364
 Vib (Bot)    3  0.935438D+00         -0.028985         -0.066740
 Vib (Bot)    4  0.640709D+00         -0.193339         -0.445179
 Vib (Bot)    5  0.542578D+00         -0.265538         -0.611423
 Vib (Bot)    6  0.473780D+00         -0.324423         -0.747012
 Vib (Bot)    7  0.399188D+00         -0.398822         -0.918323
 Vib (Bot)    8  0.251779D+00         -0.598980         -1.379202
 Vib (V=0)       0.216624D+02          1.335707          3.075579
 Vib (V=0)    1  0.247452D+01          0.393490          0.906045
 Vib (V=0)    2  0.212586D+01          0.327535          0.754178
 Vib (V=0)    3  0.156068D+01          0.193314          0.445122
 Vib (V=0)    4  0.131272D+01          0.118171          0.272099
 Vib (V=0)    5  0.123783D+01          0.092661          0.213359
 Vib (V=0)    6  0.118882D+01          0.075115          0.172958
 Vib (V=0)    7  0.113981D+01          0.056831          0.130858
 Vib (V=0)    8  0.105982D+01          0.025230          0.058094
 Electronic      0.100000D+01          0.000000          0.000000
 Translational   0.387791D+08          7.588597         17.473391
 Rotational      0.291075D+06          5.464005         12.581337
 ***** Axes restored to original set *****
 -------------------------------------------------------------------
 Center     Atomic                   Forces (Hartrees/Bohr)
 Number     Number              X              Y              Z
 -------------------------------------------------------------------
      1        6           0.003581722    0.010404000    0.001472948
      2        6           0.010518940   -0.007297603   -0.001224055
      3        6          -0.028035184   -0.008820891   -0.001825154
      4        6           0.028061323   -0.008829359    0.001834902
      5        6          -0.003597629    0.010401862   -0.001471249
      6        6          -0.010533950   -0.007303182    0.001229487
      7        7          -0.000015822    0.009392315   -0.000002353
      8        1          -0.001406484   -0.005783567    0.006276680
      9        1           0.005538282   -0.004529413   -0.004319849
     10        1          -0.007187056   -0.001268770   -0.003607418
     11        1          -0.004866169    0.000365214    0.007387230
     12        1          -0.006959948   -0.001061011   -0.004918459
     13        1           0.002345883    0.007950375   -0.000298263
     14        1          -0.005529952   -0.004524465    0.004317865
     15        1           0.007191662   -0.001269450    0.003606750
     16        1           0.001405495   -0.005787346   -0.006277107
     17        1           0.006957028   -0.001059909    0.004917180
     18        1           0.004876189    0.000366632   -0.007392177
     19        1          -0.002346146    0.007953775    0.000293570
     20        1           0.000001817    0.010700791   -0.000000528
 -------------------------------------------------------------------
 Cartesian Forces:  Max     0.028061323 RMS     0.007505851

 GradGradGradGradGradGradGradGradGradGradGradGradGradGradGradGradGradGrad
 Berny optimization.
 Search for a local minimum.
 Step number   1 out of a maximum of    2
 All quantities printed in internal units (Hartrees-Bohrs-Radians)
 Second derivative matrix not updated -- analytic derivatives used.
 ITU=  0
     Eigenvalues ---   -0.00296  -0.00294  -0.00242  -0.00173  -0.00096
     Eigenvalues ---    0.00137   0.00193   0.00470   0.00909   0.00933
     Eigenvalues ---    0.01273   0.01652   0.03942   0.05856   0.05911
     Eigenvalues ---    0.06155   0.06198   0.06331   0.06825   0.07834
     Eigenvalues ---    0.09590   0.09826   0.10232   0.11084   0.11382
     Eigenvalues ---    0.11619   0.11718   0.11784   0.12870   0.13377
     Eigenvalues ---    0.14850   0.16592   0.18755   0.20232   0.20352
     Eigenvalues ---    0.23153   0.30471   0.43998   0.44308   0.56766
     Eigenvalues ---    0.64676   0.73541   0.74168   0.75158   0.77896
     Eigenvalues ---    0.78433   0.80955   0.82704   0.83131   0.86083
     Eigenvalues ---    0.86445   0.93291   1.23744   1.47398
 Eigenvalue     1 is  -2.96D-03 should be greater than     0.000000 Eigenvector:
                          Z19       Z13       X18       X11       Y18
   1                    0.39279  -0.38324  -0.29389   0.28672   0.23796
                          Z17       Y17       Y11       Z12       Y12
   1                   -0.23619  -0.23031   0.22951   0.22805  -0.22479
 Eigenvalue     2 is  -2.94D-03 should be greater than     0.000000 Eigenvector:
                          X16       X8        Z14       Z9        Z15
   1                    0.33776   0.33556  -0.28818  -0.28518   0.27149
                          Z10       Z13       Z19       Y11       Y18
   1                    0.26932  -0.21300  -0.19599   0.18911  -0.17887
 Eigenvalue     3 is  -2.42D-03 should be greater than     0.000000 Eigenvector:
                          Z12       Z17       Z10       Z15       X11
   1                    0.27552   0.27493  -0.25350  -0.25329   0.24460
                          X8        X18       X16       Z13       Z19
   1                   -0.24403   0.24393  -0.24349  -0.23902  -0.23810
 Eigenvalue     4 is  -1.73D-03 should be greater than     0.000000 Eigenvector:
                          Z14       Z9        X16       X8        Y16
   1                    0.38799  -0.38766  -0.35874   0.35814  -0.20607
                          Y8        Y14       Y9        Z16       Z8
   1                   -0.20600   0.19568   0.19541   0.17718  -0.17695
 Eigenvalue     5 is  -9.56D-04 should be greater than     0.000000 Eigenvector:
                          Z10       Z15       Z8        Z16       X8
   1                    0.38511  -0.38511   0.28574  -0.28563   0.19178
                          X16       X14       X9        Z17       Z12
   1                   -0.19175   0.16276  -0.16268   0.16061  -0.16058
 Quadratic step=4.507D-01 exceeds max=3.000D-01 adjusted using Lamda=-8.322D-04.
 Angle between NR and scaled steps=  15.41 degrees.
 Angle between quadratic step and forces=  70.08 degrees.
 Linear search not attempted -- first point.
 TrRot= -0.000001 -0.001733  0.000016  0.006650  0.000304 -0.006651
 Variable       Old X    -DE/DX   Delta X   Delta X   Delta X     New X
                                 (Linear)    (Quad)   (Total)
    X1       -2.92699   0.00358   0.00000  -0.02274  -0.02291  -2.94991
    Y1       -2.57724   0.01040   0.00000  -0.00533  -0.00706  -2.58430
    Z1       -0.52593   0.00147   0.00000  -0.03752  -0.03660  -0.56253
    X2       -4.50164   0.01052   0.00000  -0.00576  -0.00564  -4.50727
    Y2        1.95612  -0.00730   0.00000   0.00639   0.00466   1.96078
    Z2        0.35996  -0.00122   0.00000   0.02972   0.03110   0.39107
    X3       -2.33367  -0.02804   0.00000  -0.04467  -0.04470  -2.37837
    Y3        0.16077  -0.00882   0.00000  -0.01389  -0.01562   0.14515
    Z3       -0.07931  -0.00183   0.00000  -0.00137  -0.00063  -0.07994
    X4        2.33365   0.02806   0.00000   0.04471   0.04473   2.37838
    Y4        0.16073  -0.00883   0.00000  -0.01393  -0.01567   0.14506
    Z4        0.07906   0.00183   0.00000   0.00158   0.00087   0.07993
    X5        2.92680  -0.00360   0.00000   0.02275   0.02291   2.94972
    Y5       -2.57727   0.01040   0.00000  -0.00539  -0.00713  -2.58440
    Z5        0.52600  -0.00147   0.00000   0.03758   0.03671   0.56271
    X6        4.50184  -0.01053   0.00000   0.00569   0.00557   4.50742
    Y6        1.95595  -0.00730   0.00000   0.00635   0.00462   1.96056
    Z6       -0.35982   0.00123   0.00000  -0.02983  -0.03119  -0.39101
    X7        0.00003  -0.00002   0.00000   0.00001   0.00001   0.00004
    Y7        1.09532   0.00939   0.00000   0.00166  -0.00007   1.09525
    Z7       -0.00012   0.00000   0.00000   0.00005   0.00006  -0.00006
    X8       -3.12643  -0.00141   0.00000  -0.08545  -0.08510  -3.21153
[...]
 379,0.04949979,-0.01005098,-0.10982357,0.11986116,-0.00163803,0.000770
 41,0.00125243,-0.01001588,-0.02809423,0.02073963,-0.00377439,0.0010448
 6,-0.00020658,-0.00006446,-0.00163825,0.00097107,0.00036310,0.00089149
 ,-0.00007726,0.00813378,-0.00076213,0.00211973,0.01480310,0.12968219,0
 .01970934,0.11115817,-0.23848509,0.00010511,0.00043272,0.00003333,0.00
 115280,-0.00201344,0.01493242,0.00030313,-0.00074460,-0.00074374,0.000
 88421,0.00126386,-0.00138727,-0.00004759,-0.00021086,0.00008622,-0.001
 82814,-0.00065524,-0.00060795,-0.02075798,-0.12873355,0.25950328,-0.18
 937527,0.08614652,0.11560201,-0.00002494,-0.00077715,0.00016791,0.0063
 4782,-0.00427161,-0.00599901,0.00121953,0.00047334,0.00156706,-0.00350
 660,0.00137711,-0.00110459,0.00005140,-0.00006183,0.00030761,0.0013986
 8,-0.00026571,-0.00126551,-0.00273800,0.00198555,0.00060426,0.20749425
 ,0.08627556,-0.09897211,-0.07135585,-0.00267161,-0.00455816,-0.0012368
 8,0.02445363,-0.02001684,-0.01814635,-0.00262962,0.00089537,-0.0001702
 0,0.00053675,-0.00071511,-0.00066011,0.00006343,0.00025109,0.00036719,
 0.00433872,0.00212129,0.00104525,-0.01294996,0.00751506,0.01070019,-0.
 09696178,0.11174004,0.11433761,-0.07104806,-0.13829874,-0.00112055,-0.
 00011125,-0.00019362,0.00229848,-0.00230935,-0.00126200,-0.00206373,0.
 00003815,-0.00144891,0.00073640,-0.00159648,0.00042371,0.00004941,0.00
 045978,0.00015275,0.00265771,-0.00006013,0.00095112,0.02300827,-0.0129
 6429,-0.01783269,-0.12689763,0.07749971,0.14659523,-0.25770658,-0.0103
 1991,-0.11688694,0.00072760,0.00164021,0.00154819,-0.00821951,-0.00318
 671,-0.00031245,-0.00024005,-0.00042850,-0.00065424,0.00035648,-0.0001
 2016,-0.00081664,0.00011390,0.00018664,0.00018003,0.00079938,-0.000128
 15,-0.00278989,0.00135616,0.00005834,0.00149349,-0.01896388,-0.0019800
 3,-0.01294047,0.28141444,-0.01052440,-0.04496134,-0.00735750,-0.001814
 65,0.00085089,-0.00077199,-0.03258552,-0.00798434,-0.01425235,0.000318
 15,-0.00049041,-0.00000772,0.00038759,-0.00014792,0.00045985,-0.000043
 62,0.00023886,0.00048881,0.00075171,-0.00544270,-0.00329051,0.01586692
 ,0.00086602,0.00888380,0.01251128,0.00065627,0.00825209,0.01522390,0.0
 5556519,-0.11741431,-0.00785844,-0.11319386,-0.00007973,0.00063905,0.0
 0047375,-0.00467194,-0.00124542,0.00103965,-0.00035949,0.00007190,0.00
 019562,0.00045548,0.00072769,-0.00024658,0.00015965,0.00019688,0.00036
 373,0.00217135,-0.00059685,-0.00165852,-0.02853070,0.00034927,-0.01662
 485,0.01826799,0.00132195,0.01046286,0.13051041,0.00678063,0.11898723,
 0.00041511,-0.00107831,-0.00006026,-0.08133788,-0.01673242,0.09341072,
 -0.02030036,0.00179763,0.02153951,-0.00263665,0.00036147,-0.00132104,-
 0.00009703,-0.00060453,0.00000813,0.00035958,0.00055940,-0.00039051,0.
 00392215,0.00303954,0.00368497,0.00011275,0.00082587,-0.00010780,-0.00
 021811,0.00004568,-0.00018160,0.00013783,0.00033972,-0.00007512,0.0960
 5909,-0.00054802,0.00137413,0.00056199,-0.01369727,-0.04879057,0.02580
 050,0.01593751,0.00223443,-0.01907662,0.00272375,-0.00018872,0.0009323
 7,-0.00020216,0.00045913,-0.00067545,-0.00031289,-0.00035883,0.0006367
 4,-0.00370969,-0.00067860,-0.00240582,-0.00016072,-0.00025808,0.000574
 61,-0.00003455,0.00017755,0.00032894,0.00005147,-0.00011753,-0.0002730
 4,0.01045778,0.05165861,0.00028541,0.00014547,0.00015588,0.08885473,0.
 03247764,-0.26607866,0.00753447,-0.00405156,0.00522065,0.00089456,-0.0
 0011073,-0.00040885,0.00010584,0.00039464,-0.00003711,-0.00020518,-0.0
 0041278,-0.00012721,-0.00268190,-0.00090446,-0.00145118,0.00014569,-0.
 00065190,-0.00042915,0.00012098,-0.00024246,0.00007672,-0.00038634,0.0
 0012911,-0.00048220,-0.10420322,-0.03073135,0.29129810,0.00026468,-0.0
 0195329,0.00019204,-0.18554877,-0.03661620,-0.13452806,-0.02496881,-0.
 00312389,-0.01032601,-0.00174231,-0.00037033,0.00015553,0.00017258,-0.
 00047557,0.00023104,0.00013622,0.00065637,0.00079725,-0.00206955,0.003
 90285,-0.00422430,0.00030836,0.00025395,-0.00013320,0.00034377,-0.0002
 2248,0.00014065,0.00091963,0.00103200,0.00035193,0.00874525,0.00168532
 ,0.00879903,0.21032322,0.00161968,0.00135926,0.00084809,-0.03450674,-0
 .05637165,-0.03048152,0.01747927,0.00308447,0.01134114,0.00083194,0.00
 027594,-0.00049872,0.00008653,0.00039970,0.00046326,0.00004955,-0.0003
 6979,-0.00076994,0.00134923,-0.00298346,0.00101249,-0.00030940,0.00005
 118,-0.00032306,0.00010145,0.00033045,0.00021247,-0.00102520,-0.000134
 24,-0.00052846,0.00266547,0.00155210,0.00419563,0.03470870,0.05640657,
 0.00034865,0.00004013,0.00021422,-0.13413154,-0.03216150,-0.17170746,0
 .00517581,-0.00010097,0.00911821,-0.00055458,0.00013035,-0.00052927,0.
 00010875,-0.00012809,-0.00003346,0.00018288,0.00016042,0.00012359,0.00
 341407,-0.00030361,-0.00080756,-0.00018216,0.00019188,-0.00035191,0.00
 039715,0.00016024,0.00013156,-0.00017613,0.00055858,0.00008360,-0.0240
 9675,-0.00730649,-0.02506099,0.14564332,0.03699285,0.18594070,-0.00339
 751,0.00161589,0.00118473,-0.07235028,-0.07573377,0.00667784,0.0052500
 9,0.02617933,-0.00174494,0.00043215,0.00020981,0.00012378,-0.00007170,
 -0.00015517,-0.00059822,0.00001826,-0.00003598,0.00053808,0.00273599,0
 .00346601,-0.00030842,-0.00000794,-0.00011164,-0.00004153,0.00029500,0
 .00090637,0.00017704,0.00038247,-0.00006276,0.00030433,-0.00433064,-0.
 01391818,0.00045282,-0.00646209,-0.02320361,0.00409428,0.07768896,0.00
 394180,-0.00119250,0.00027453,-0.07626827,-0.29274119,0.02358344,-0.00
 717822,-0.02176501,0.00006868,0.00257451,-0.00009903,0.00029235,-0.000
 35698,0.00035211,-0.00014029,-0.00025150,-0.00045048,-0.00004109,-0.00
 629330,0.00205605,-0.00091216,-0.00002565,-0.00032083,0.00020929,-0.00
 008967,-0.00094950,0.00015808,0.00030026,0.00060496,0.00029366,-0.0019
 8979,-0.00581123,-0.00035863,-0.00044022,-0.00461011,0.00160302,0.0828
 7909,0.32420373,0.00034381,-0.00120746,0.00063326,0.00690461,0.0249836
 6,-0.04772873,-0.00120503,-0.00658573,-0.00073869,-0.00011088,0.000135
 97,-0.00011378,-0.00000841,-0.00009538,-0.00001152,0.00002954,0.000076
 43,-0.00004194,-0.00060529,-0.00035602,-0.00010573,0.00017487,-0.00058
 415,0.00006210,0.00025440,-0.00031807,0.00012574,0.00053533,0.00013964
 ,0.00017868,0.01070095,0.03147883,-0.00301296,-0.00636189,-0.02264975,
 0.00275275,-0.01065676,-0.02529829,0.04731336,-0.00350548,-0.00137818,
 -0.00110458,0.00005119,0.00006219,0.00030776,0.00122092,-0.00047545,0.
 00156996,0.00634519,0.00426234,-0.00599892,-0.18927323,-0.08604290,0.1
 1563087,-0.00002404,0.00077516,0.00016844,0.00139940,0.00026768,-0.001
 26779,-0.00163654,0.00025592,-0.00155031,-0.00039640,0.00024618,-0.000
 10701,-0.00072750,0.00009579,-0.00029105,0.00004769,-0.00004637,-0.000
 13720,0.00009074,-0.00018415,-0.00006771,0.00003002,-0.00004311,0.0000
 1625,0.20737475,-0.00053540,-0.00071504,0.00066052,-0.00006379,0.00025
 114,-0.00036737,0.00262982,0.00089711,0.00017007,-0.02444210,-0.020018
 81,0.01816222,-0.08618174,-0.09889043,0.07135211,0.00267126,-0.0045566
 8,0.00123895,-0.00434248,0.00212039,-0.00104649,-0.00007889,0.00092656
 ,-0.00053141,-0.00024642,0.00018317,0.00004159,-0.00011263,0.00029910,
 -0.00015554,0.00021909,-0.00015976,-0.00009240,0.00004225,-0.00003889,
 0.00004838,0.00001396,-0.00001218,0.00002398,0.09685920,0.11166080,0.0
 0073672,0.00159661,0.00042371,0.00004991,-0.00046012,0.00015300,-0.002
 06501,-0.00003793,-0.00145133,0.00229934,0.00231531,-0.00125970,0.1143
 6881,0.07104084,-0.13842483,-0.00112077,0.00011071,-0.00019617,0.00265
 953,0.00005973,0.00095270,-0.00021873,-0.00065543,0.00124053,-0.000106
 53,-0.00004266,-0.00129419,0.00034183,-0.00051073,0.00018437,-0.000131
 25,0.00015086,0.00012493,-0.00012216,0.00005030,-0.00004637,0.00002732
 ,-0.00003804,-0.00003431,-0.12693702,-0.07749717,0.14673726,0.00035693
 ,0.00011895,-0.00081590,0.00011413,-0.00018651,0.00018006,-0.00023922,
 0.00042859,-0.00065460,-0.00821703,0.00317860,-0.00030982,-0.25784328,
 0.01033892,-0.11683453,0.00072733,-0.00164168,0.00154814,0.00079886,0.
 00012823,-0.00278899,0.00032334,-0.00017838,0.00033942,-0.00072750,0.0
 0011321,0.00034179,-0.00004477,0.00014339,0.00005733,-0.00022936,0.000
 08586,0.00016396,-0.00008060,0.00011032,-0.00001450,-0.00002982,0.0000
 9209,-0.00002293,-0.01896157,0.00197997,-0.01292763,0.28156033,-0.0003
 8708,-0.00014846,-0.00046037,0.00004374,0.00023840,-0.00048833,-0.0003
 1968,-0.00049051,0.00000795,0.03259093,-0.00797876,0.01424055,0.010535
 12,-0.04496353,0.00735432,0.00181409,0.00085023,0.00077325,-0.00074961
 ,-0.00544478,0.00328921,0.00030955,0.00003872,-0.00003600,-0.00009612,
 0.00029912,0.00051061,-0.00014349,0.00026592,0.00014812,0.00025321,-0.
 00005621,-0.00009247,0.00004908,-0.00006273,0.00006171,0.00004238,0.00
 006191,0.00003222,-0.01250653,0.00065589,-0.00824127,-0.01523345,0.055
 56709,0.00045516,-0.00072751,-0.00024608,0.00015954,-0.00019667,0.0003
 6364,-0.00035947,-0.00007248,0.00019563,-0.00467709,0.00124243,0.00103
 320,-0.11735974,0.00785860,-0.11309113,-0.00007844,-0.00063898,0.00047
 438,0.00217062,0.00059847,-0.00165733,-0.00056783,0.00000466,0.0001181
 8,-0.00029079,0.00015577,0.00018418,0.00005741,-0.00014817,-0.00001917
 ,-0.00017029,0.00006722,0.00008895,-0.00002148,-0.00000644,-0.00004431
 ,0.00000752,0.00003053,-0.00000529,0.01828508,-0.00132390,0.01046286,0
 .13044912,-0.00678086,0.11887096,0.00002972,-0.00136290,0.00066625,0.0
 0006052,-0.00038758,0.00026882,0.00012490,0.00033372,0.00095544,-0.001
 94394,0.00793304,0.00518241,-0.04747915,0.00915223,0.02052203,0.000172
 56,-0.00009029,0.00025266,0.00298294,0.00113187,-0.00002556,-0.0008373
 4,0.00020961,-0.00027729,-0.00163968,0.00007930,-0.00021813,0.00032433
 ,-0.00031002,-0.00056774,-0.00010438,0.00011721,0.00005836,-0.00012936
 ,-0.00002297,-0.00006284,0.00008399,-0.00005191,0.00000892,-0.00272640
 ,0.01295002,0.02300238,0.00134187,-0.01587927,-0.02853495,0.04947194,0
 .00006533,-0.00163794,-0.00097190,-0.00036360,0.00089194,0.00007705,0.
 00377457,0.00104371,0.00020773,0.00999590,-0.02810240,-0.02073566,0.00
 998564,-0.10988594,-0.11990903,0.00163995,0.00076652,-0.00125357,-0.00
 813342,-0.00075917,-0.00211767,-0.00020978,0.00091508,-0.00001028,-0.0
 0025567,0.00092751,0.00065529,0.00017865,0.00003880,-0.00000451,0.0003
 4305,-0.00046073,-0.00023361,0.00039905,0.00004046,0.00010587,-0.00017
 939,-0.00023490,0.00004314,-0.00197852,0.00751269,0.01295394,-0.000057
 71,0.00086638,-0.00034613,-0.01472764,0.12975407,0.00088391,-0.0012646
 6,-0.00138667,-0.00004767,0.00021083,0.00008646,0.00030270,0.00074399,
 -0.00074434,0.00115708,0.00201960,0.01493435,0.01958997,-0.11120699,-0
 .23845844,0.00010518,-0.00043234,0.00003198,-0.00182764,0.00065424,-0.
 00060712,-0.00027824,0.00001082,0.00074057,-0.00155016,0.00053191,0.00
 124082,0.00033954,0.00003620,0.00011815,0.00006441,-0.00009431,0.00002
 005,0.00012268,0.00001663,0.00009230,-0.00000860,-0.00007844,0.0000258
 7,0.00059736,-0.01071220,-0.01784685,0.00148470,-0.00888001,-0.0166072
 0,-0.02062714,0.12878359,0.25947124,0.00017248,0.00047551,0.00023137,0
 .00013677,-0.00065670,0.00079770,-0.00174404,0.00036986,0.00015506,-0.
 02497022,0.00311422,-0.01033575,0.00026341,0.00195394,0.00019366,-0.18
 541834,0.03656208,-0.13453748,-0.00206466,-0.00390208,-0.00422461,-0.0
 0012952,-0.00039922,0.00012263,0.00009066,-0.00004222,-0.00012213,-0.0
 0008067,-0.00004909,-0.00002157,-0.00046103,0.00032419,0.00018895,-0.0
 0009206,-0.00005644,-0.00005409,0.00011832,0.00012290,-0.00004337,0.00
 034336,0.00022185,0.00014001,0.00092009,-0.00103119,0.00035098,0.00030
 873,-0.00025381,-0.00013314,0.21018587,-0.00008657,0.00040010,-0.00046
 350,-0.00004919,-0.00037021,0.00077022,-0.00083316,0.00027512,0.000498
 53,-0.01747566,0.00307959,-0.01134431,-0.00161992,0.00135957,-0.000847
 21,0.03444986,-0.05635211,0.03045629,-0.00134401,-0.00298237,-0.001013
 71,0.00002316,0.00004022,-0.00001658,0.00018415,-0.00003894,-0.0000503
 5,-0.00011051,-0.00006283,0.00000645,-0.00016015,0.00023159,0.00000034
 ,0.00005633,-0.00015834,-0.00001543,0.00013096,0.00006929,0.00000983,-
 0.00010172,0.00033032,-0.00021266,0.00102529,-0.00013488,0.00052803,0.
 00031025,0.00005184,0.00032303,-0.03464577,0.05638415,0.00010870,0.000
 12805,-0.00003302,0.00018306,-0.00016052,0.00012355,-0.00055460,-0.000
 13021,-0.00052999,0.00516814,0.00010177,0.00912380,0.00034735,-0.00003
 950,0.00021422,-0.13413461,0.03214022,-0.17183592,0.00341201,0.0003028
 0,-0.00080902,-0.00006299,-0.00010598,0.00009229,-0.00006769,-0.000048
 36,-0.00004640,-0.00001450,-0.00006180,-0.00004439,-0.00011139,0.00006
 482,0.00008504,-0.00005414,0.00001542,-0.00003769,-0.00000543,0.000027
 92,-0.00001200,0.00039719,-0.00016032,0.00013137,-0.00017537,-0.000559
 02,0.00008370,-0.00018149,-0.00019189,-0.00035159,0.14565359,-0.036965
 59,0.18607950,-0.00009746,0.00060433,0.00000788,0.00035959,-0.00055929
 ,-0.00039035,-0.00263407,-0.00036058,-0.00132100,-0.02031141,-0.001789
 28,0.02153214,0.00041594,0.00107808,-0.00006161,-0.08141202,0.01678223
 ,0.09349516,0.00391562,-0.00304129,0.00368709,-0.00010440,-0.00034292,
 0.00006443,0.00004763,-0.00021889,-0.00013100,-0.00022947,-0.00025351,
 -0.00017036,-0.00024377,0.00018204,0.00021202,-0.00046078,0.00015999,-
 0.00011131,-0.00000172,0.00020672,0.00001841,-0.00021845,-0.00004587,-
 0.00018117,0.00013809,-0.00033947,-0.00007528,0.00011198,-0.00082584,-
 0.00010730,0.00875104,-0.00267165,-0.02408202,0.09614669,0.00020207,0.
 00045913,0.00067543,0.00031303,-0.00035869,-0.00063670,-0.00272347,-0.
 00018832,-0.00093349,-0.01594452,0.00224338,0.01906874,0.00054950,0.00
 137257,-0.00056369,0.01374414,-0.04880987,-0.02587894,0.00370688,-0.00
 067979,0.00240708,-0.00011723,-0.00046071,0.00009444,0.00004622,-0.000
 15962,-0.00015076,-0.00008587,-0.00005632,-0.00006724,-0.00018204,0.00
 004893,0.00020677,-0.00032398,0.00023142,-0.00006476,-0.00009099,0.000
 15883,-0.00004095,0.00003517,0.00017817,-0.00032843,-0.00005141,-0.000
 11814,0.00027375,0.00015995,-0.00025733,-0.00057376,-0.00168530,0.0015
 5331,0.00729841,-0.01050924,0.05167762,0.00010594,-0.00039416,-0.00003
 720,-0.00020518,0.00041248,-0.00012700,0.00089355,0.00011036,-0.000408
 49,0.00752854,0.00404723,0.00522554,0.00028503,-0.00014473,0.00015784,
 0.08894279,-0.03255329,-0.26602630,-0.00268126,0.00090352,-0.00145266,
 0.00005832,0.00023353,0.00001999,-0.00013695,0.00009224,0.00012464,0.0
 0016387,0.00009248,0.00008891,0.00021188,-0.00020658,-0.00012257,0.000
 18872,-0.00000029,0.00008491,-0.00005349,-0.00014796,-0.00000181,0.000
 12082,0.00024236,0.00007603,-0.00038612,-0.00012858,-0.00048268,0.0001
 4602,0.00065118,-0.00042922,0.00881319,-0.00420589,-0.02506709,-0.1042
 9266,0.03081832,0.29122975,-0.00007152,0.00015483,-0.00059751,0.000018
 33,0.00003602,0.00053740,0.00043174,-0.00020951,0.00012388,0.00525176,
 -0.02618305,-0.00173393,-0.00339796,-0.00161648,0.00118503,-0.07235725
 ,0.07575391,0.00664449,0.00273665,-0.00346486,-0.00030851,0.00008395,0
 .00017925,-0.00000867,0.00002999,-0.00001391,0.00002732,-0.00002977,-0
 .00004230,0.00000756,-0.00000167,0.00009084,-0.00005351,0.00011821,-0.
 00013076,-0.00000540,0.00003723,0.00001864,0.00001421,0.00029462,-0.00
 090650,0.00017685,0.00038215,0.00006261,0.00030412,-0.00000765,0.00011
 117,-0.00004151,-0.00646124,0.02319525,0.00408187,-0.00433517,0.013931
 19,0.00044620,0.07769841,0.00035674,0.00035180,0.00013996,0.00025167,-
 0.00045046,0.00004142,-0.00257374,-0.00009869,-0.00029321,0.00718234,-
 0.02176162,-0.00006272,-0.00394010,-0.00119231,-0.00027393,0.07628390,
 -0.29277807,-0.02347290,0.00629207,0.00205554,0.00091147,0.00005179,-0
 .00023468,0.00007847,0.00004303,-0.00001208,0.00003812,-0.00009213,0.0
 0006176,-0.00003058,-0.00020670,0.00015886,0.00014804,-0.00012272,0.00
 006911,-0.00002787,-0.00001860,0.00023799,-0.00003110,0.00008925,-0.00
 094907,-0.00015803,-0.00030055,0.00060511,-0.00029382,0.00002499,-0.00
 032149,-0.00020877,0.00043929,-0.00460437,-0.00160016,0.00199101,-0.00
 581959,0.00036195,-0.08289903,0.32423905,-0.00000854,0.00009531,-0.000
 01163,0.00002941,-0.00007631,-0.00004189,-0.00010994,-0.00013588,-0.00
 011369,-0.00120598,0.00657852,-0.00074257,0.00034255,0.00120755,0.0006
 3552,0.00687124,-0.02487129,-0.04770928,-0.00060600,0.00035481,-0.0001
 0599,0.00000898,-0.00004302,0.00002584,0.00001622,-0.00002393,-0.00003
 428,-0.00002294,-0.00003226,-0.00000528,0.00001849,0.00004093,-0.00000
 189,-0.00004332,-0.00000989,-0.00001199,0.00001425,0.00003104,0.000025
 28,0.00025453,0.00031748,0.00012539,0.00053560,-0.00013983,0.00017864,
 0.00017554,0.00058430,0.00006171,-0.00636657,0.02266253,0.00274426,0.0
 1069746,-0.03147275,-0.00299561,-0.01061560,0.02517498,0.04728755,-0.0
 0435882,0.00032525,0.00113247,-0.00073596,-0.00498191,-0.00012884,-0.0
 0917863,-0.04397864,-0.00327056,-0.00917672,0.04397918,-0.00327091,-0.
 00435903,-0.00032534,0.00113271,-0.00073529,0.00498074,-0.00013169,-0.
 05735936,0.00000291,0.00001867,-0.00014573,-0.00049257,-0.00002632,0.0
 0027166,0.00063166,0.00000758,-0.00029002,-0.00098459,-0.00010401,0.00
 016143,0.00097388,-0.00014947,0.00013167,0.00027716,0.00009211,-0.0004
 2081,0.00285261,0.00001327,0.00027173,-0.00063162,0.00000759,-0.000289
 96,0.00098519,-0.00010419,-0.00014558,0.00049208,-0.00002613,0.0001310
 4,-0.00027695,0.00009233,0.00016213,-0.00097408,-0.00014921,-0.0004208
 0,-0.00285249,0.00001463,0.08648704,-0.00063064,0.00210844,0.00439802,
 0.00315707,0.00469637,-0.00166798,-0.00666010,-0.02249428,-0.00360504,
 0.00665949,-0.02249324,0.00360478,0.00063140,0.00210857,-0.00439807,-0
 .00315693,0.00469425,0.00166776,0.00000348,-0.42618848,0.00000593,-0.0
 0043092,-0.00114931,-0.00012053,0.00019187,0.00032543,0.00009586,0.000
 09381,-0.00005015,0.00022448,0.00004603,-0.00101507,0.00018473,0.00086
 278,0.00092854,0.00005529,-0.00193370,0.00044208,0.00024321,-0.0001919
 7,0.00032554,-0.00009584,-0.00009374,-0.00005078,-0.00022451,0.0004303
 7,-0.00114910,0.00012064,-0.00086202,0.00092895,-0.00005604,-0.0000465
 4,-0.00101500,-0.00018418,0.00193271,0.00044320,-0.00024230,-0.0000024
 7,0.45860406,0.00024771,-0.00166004,0.00700479,-0.00003640,0.00041406,
 -0.00527648,-0.00298896,-0.00360664,0.00405479,-0.00298738,0.00360608,
 0.00405559,0.00024771,0.00166121,0.00700398,-0.00003551,-0.00041542,-0
 .00527786,0.00186806,0.00000541,-0.03678013,-0.00074357,-0.00171202,-0
 .00039210,0.00011326,0.00037042,-0.00005851,-0.00016954,0.00061181,0.0
 0009830,0.00121016,0.00013187,0.00014242,-0.00080762,0.00011979,0.0000
 8917,-0.00018462,0.00044235,0.00068973,0.00011334,-0.00037085,-0.00005
 843,-0.00016972,-0.00061120,0.00009886,-0.00074367,0.00171216,-0.00039
 207,-0.00080842,-0.00012001,0.00008939,0.00120950,-0.00013146,0.000143
 01,-0.00018429,-0.00044131,0.00068989,0.00484997,-0.00000622,0.0240756
 8||-0.00358172,-0.01040400,-0.00147295,-0.01051894,0.00729760,0.001224
 05,0.02803518,0.00882089,0.00182515,-0.02806132,0.00882936,-0.00183490
 ,0.00359763,-0.01040186,0.00147125,0.01053395,0.00730318,-0.00122949,0
 .00001582,-0.00939232,0.00000235,0.00140648,0.00578357,-0.00627668,-0.
 00553828,0.00452941,0.00431985,0.00718706,0.00126877,0.00360742,0.0048
 6617,-0.00036521,-0.00738723,0.00695995,0.00106101,0.00491846,-0.00234
 588,-0.00795038,0.00029826,0.00552995,0.00452446,-0.00431786,-0.007191
 66,0.00126945,-0.00360675,-0.00140549,0.00578735,0.00627711,-0.0069570
 3,0.00105991,-0.00491718,-0.00487619,-0.00036663,0.00739218,0.00234615
 ,-0.00795377,-0.00029357,-0.00000182,-0.01070079,0.00000053|||@


 I CLAIM NOT TO HAVE CONTROLLED EVENTS,
 BUT CONFESS PLAINLY THAT EVENTS HAVE CONTROLLED ME.

                                         A. LINCOLN
 Job cpu time:       0 days  0 hours  2 minutes 44.0 seconds.
 File lengths (MBytes):  RWF=     26 Int=      0 D2E=      0 Chk=      1 Scr=      1
 Normal termination of Gaussian 09 at Fri Jul 25 01:50:27 2025.
